HEADER
"PSFversion" "1.00"
"Time Stamp" "Jan 11 08:05:16 2017"
TYPE
"variable" STRUCT(
"value" FLOAT DOUBLE
) PROP( "key" "element" )
VALUE
"tr" "variable" ( 1e-12 ) PROP( )
"tper" "variable" ( 800e-12 ) PROP( )
"ron" "variable" ( 170 ) PROP( )
"iin_phase" "variable" ( 0 ) PROP( )
"cl" "variable" ( 64e-15 ) PROP( )
"temp" "variable" ( 27 ) PROP( )
END
