HEADER
"PSFversion" "1.00"
"design" "(\"adc_sampler_2\" \"tran_test\" \"schematic\" \"\")"
"simulator" "spectre"
"temperature" "27"
"host" ""
"date" "Jan 11 23:03:22 2017"
"title" ""
"analysisList" "()"
END
