HEADER
"PSFversion" "1.00"
"design" "(\"adc_sampler_2\" \"sampler_zin_pss\" \"schematic\" \"\")"
"simulator" "spectre"
"temperature" "27"
"host" ""
"date" "Jan 11 08:05:10 2017"
"title" ""
"analysisList" "()"
END
