HEADER
"PSFversion" "1.00"
"N+v" ":1v"
"N-v" "(FUNCTION minus(root(\"N+\")))v"
"NC+v" "(FUNCTION zero(root(\"N+\")))v"
"NC-v" "(FUNCTION zero(root(\"N+\")))v"
