HEADER
"PSFversion" "1.00"
"vc<1>v" "vc_1v"
"vc<2>v" "vc_2v"
"vc<3>v" "vc_3v"
"vc<4>v" "vc_4v"
"vc<5>v" "vc_5v"
"vc<6>v" "vc_6v"
"vc<7>v" "vc_7v"
"vc<8>v" "vc_8v"
"vout<1>v" "vout_1v"
"vout<2>v" "vout_2v"
"vout<3>v" "vout_3v"
"vout<4>v" "vout_4v"
"vout<5>v" "vout_5v"
"vout<6>v" "vout_6v"
"vout<7>v" "vout_7v"
"vout<8>v" "vout_8v"
"gnd!v" "0v"
