HEADER
"PSFversion" "1.00"
"BINPSF creation time" "1484583176"
"simulator" "spectre"
"version" "15.1.0.644.isr13"
"date" "8:12:58 AM, Mon Jan 16, 2017"
"design" "// Generated for: spectre"
"analysis type" "tran"
"analysis name" "tran"
"analysis description" "Transient Analysis `tran': time = (0 s -> 107 ns)"
"xVecSorted" "ascending"
"tolerance.relative" 0.00100000
"start" 0.00000
"outputstart" 0.00000
"stop" 1.07000e-07
"step" 1.07000e-10
"maxstep" 1.07000e-09
"ic" "all"
"useprevic" "no"
"skipdc" "no"
"reltol" 0.000100000
"abstol(V)" 1.00000e-06
"abstol(I)" 1.00000e-12
"temp" 27.0000
"tnom" 27.0000
"tempeffects" "all"
"errpreset" "conservative"
"method" "gear2only"
"lteratio" 10.0000
"relref" "alllocal"
"cmin" 0.00000
"gmin" 1.00000e-12
TYPE
"sweep" FLOAT DOUBLE PROP(
"key" "sweep"
)
"LogicV" FLOAT DOUBLE PROP(
"key" "node"
)
"V" FLOAT DOUBLE PROP(
"units" "V"
"key" "node"
"tolerance" 1.00000e-06
)
"I" FLOAT DOUBLE PROP(
"units" "A"
"key" "branch"
"tolerance" 1.00000e-12
)
"MMF" FLOAT DOUBLE PROP(
"units" "A*turn"
"key" "node"
"tolerance" 1.00000e-12
)
"Wb" FLOAT DOUBLE PROP(
"units" "Wb"
"key" "node"
"tolerance" 1.00000e-09
)
"Temp" FLOAT DOUBLE PROP(
"units" "C"
"key" "node"
"tolerance" 0.000100000
)
"Pwr" FLOAT DOUBLE PROP(
"units" "W"
"key" "node"
"tolerance" 1.00000e-09
)
"U" FLOAT DOUBLE PROP(
"units" ""
"key" "node"
"tolerance" 1.00000e-06
)
"V/Sec" FLOAT DOUBLE PROP(
"units" "V/s"
"key" "node"
"tolerance" 0.000100000
)
"I/Sec" FLOAT DOUBLE PROP(
"units" "A/s"
"key" "node"
"tolerance" 1.00000e-06
)
"1/Sec" FLOAT DOUBLE PROP(
"units" "1/s"
"key" "node"
"tolerance" 0.000100000
)
"HOD" FLOAT DOUBLE PROP(
"units" ""
"key" "node"
"tolerance" 0.0100000
)
"Q" FLOAT DOUBLE PROP(
"units" "Coul"
"key" "node"
"tolerance" 1.00000e-15
)
SWEEP
"time" "sweep" PROP(
"sweep_direction" 0
"units" "s"
"plot" 0
"grid" 1
)
TRACE
"group" GROUP 4
"vo1" "V"
"vo2" "V"
"vin" "V"
"V0:p" "I"
VALUE
"time" 0.00000
"group" 0.00000
0.00000
0.00000
0.00000
"time" 1.00000e-11
"group" 0.00000
0.00000
0.00000
0.00000
"time" 2.00000e-11
"group" 0.00000
0.00000
0.00000
0.00000
"time" 3.00000e-11
"group" 0.00000
0.00000
0.00000
0.00000
"time" 4.00000e-11
"group" 0.00000
0.00000
0.00000
0.00000
"time" 5.00000e-11
"group" 0.00000
0.00000
0.00000
0.00000
"time" 6.00000e-11
"group" 0.00000
0.00000
0.00000
0.00000
"time" 7.00000e-11
"group" 0.00000
0.00000
0.00000
0.00000
"time" 8.00000e-11
"group" 0.00000
0.00000
0.00000
0.00000
"time" 9.00000e-11
"group" 0.00000
0.00000
0.00000
0.00000
"time" 1.00000e-10
"group" 0.00000
0.00000
0.00000
0.00000
"time" 1.10000e-10
"group" 0.00949270
4.54486e-05
1.00000
-0.000990507
"time" 1.20000e-10
"group" 0.0192067
0.000186719
1.00000
-0.000980793
"time" 1.30000e-10
"group" 0.0287304
0.000420344
1.00000
-0.000971270
"time" 1.40000e-10
"group" 0.0380687
0.000742352
1.00000
-0.000961931
"time" 1.50000e-10
"group" 0.0472261
0.00114921
1.00000
-0.000952774
"time" 1.60000e-10
"group" 0.0562067
0.00163770
1.00000
-0.000943793
"time" 1.70000e-10
"group" 0.0650148
0.00220457
1.00000
-0.000934985
"time" 1.80000e-10
"group" 0.0736544
0.00284660
1.00000
-0.000926346
"time" 1.90000e-10
"group" 0.0821296
0.00356066
1.00000
-0.000917870
"time" 2.00000e-10
"group" 0.0904443
0.00434373
1.00000
-0.000909556
"time" 2.10000e-10
"group" 0.0986025
0.00519287
1.00000
-0.000901397
"time" 2.20000e-10
"group" 0.106608
0.00610523
1.00000
-0.000893392
"time" 2.30000e-10
"group" 0.114464
0.00707807
1.00000
-0.000885536
"time" 2.40000e-10
"group" 0.122174
0.00810872
1.00000
-0.000877826
"time" 2.50000e-10
"group" 0.129743
0.00919463
1.00000
-0.000870257
"time" 2.60000e-10
"group" 0.137172
0.0103333
1.00000
-0.000862828
"time" 2.70000e-10
"group" 0.144466
0.0115223
1.00000
-0.000855534
"time" 2.80000e-10
"group" 0.151627
0.0127594
1.00000
-0.000848373
"time" 2.90000e-10
"group" 0.158659
0.0140422
1.00000
-0.000841341
"time" 3.00000e-10
"group" 0.165564
0.0153687
1.00000
-0.000834436
"time" 3.10000e-10
"group" 0.172347
0.0167367
1.00000
-0.000827653
"time" 3.20000e-10
"group" 0.179008
0.0181441
1.00000
-0.000820992
"time" 3.30000e-10
"group" 0.185552
0.0195891
1.00000
-0.000814448
"time" 3.40000e-10
"group" 0.191981
0.0210697
1.00000
-0.000808019
"time" 3.50000e-10
"group" 0.198297
0.0225841
1.00000
-0.000801703
"time" 3.60000e-10
"group" 0.204503
0.0241305
1.00000
-0.000795497
"time" 3.70000e-10
"group" 0.210602
0.0257072
1.00000
-0.000789398
"time" 3.80000e-10
"group" 0.216595
0.0273126
1.00000
-0.000783405
"time" 3.90000e-10
"group" 0.222486
0.0289450
1.00000
-0.000777514
"time" 4.00000e-10
"group" 0.228277
0.0306030
1.00000
-0.000771723
"time" 4.10000e-10
"group" 0.233970
0.0322850
1.00000
-0.000766030
"time" 4.20000e-10
"group" 0.239566
0.0339896
1.00000
-0.000760434
"time" 4.30000e-10
"group" 0.245069
0.0357153
1.00000
-0.000754931
"time" 4.40000e-10
"group" 0.250480
0.0374610
1.00000
-0.000749520
"time" 4.50000e-10
"group" 0.255801
0.0392252
1.00000
-0.000744199
"time" 4.60000e-10
"group" 0.261034
0.0410067
1.00000
-0.000738966
"time" 4.70000e-10
"group" 0.266182
0.0428044
1.00000
-0.000733818
"time" 4.80000e-10
"group" 0.271245
0.0446170
1.00000
-0.000728755
"time" 4.90000e-10
"group" 0.276226
0.0464435
1.00000
-0.000723774
"time" 5.00000e-10
"group" 0.281127
0.0482827
1.00000
-0.000718873
"time" 5.10000e-10
"group" 0.285948
0.0501337
1.00000
-0.000714052
"time" 5.20000e-10
"group" 0.290693
0.0519954
1.00000
-0.000709307
"time" 5.30000e-10
"group" 0.295362
0.0538668
1.00000
-0.000704638
"time" 5.40000e-10
"group" 0.299957
0.0557470
1.00000
-0.000700043
"time" 5.50000e-10
"group" 0.304480
0.0576351
1.00000
-0.000695520
"time" 5.60000e-10
"group" 0.308932
0.0595303
1.00000
-0.000691068
"time" 5.70000e-10
"group" 0.313315
0.0614317
1.00000
-0.000686685
"time" 5.80000e-10
"group" 0.317630
0.0633386
1.00000
-0.000682370
"time" 5.90000e-10
"group" 0.321878
0.0652500
1.00000
-0.000678122
"time" 6.00000e-10
"group" 0.326061
0.0671654
1.00000
-0.000673939
"time" 6.10000e-10
"group" 0.330180
0.0690839
1.00000
-0.000669820
"time" 6.20000e-10
"group" 0.334237
0.0710049
1.00000
-0.000665763
"time" 6.30000e-10
"group" 0.338232
0.0729278
1.00000
-0.000661768
"time" 6.40000e-10
"group" 0.342167
0.0748518
1.00000
-0.000657833
"time" 6.50000e-10
"group" 0.346044
0.0767764
1.00000
-0.000653956
"time" 6.60000e-10
"group" 0.349862
0.0787011
1.00000
-0.000650138
"time" 6.70000e-10
"group" 0.353624
0.0806251
1.00000
-0.000646376
"time" 6.80000e-10
"group" 0.357331
0.0825480
1.00000
-0.000642669
"time" 6.90000e-10
"group" 0.360983
0.0844693
1.00000
-0.000639017
"time" 7.00000e-10
"group" 0.364582
0.0863884
1.00000
-0.000635418
"time" 7.10000e-10
"group" 0.368129
0.0883049
1.00000
-0.000631871
"time" 7.20000e-10
"group" 0.371624
0.0902183
1.00000
-0.000628376
"time" 7.30000e-10
"group" 0.375069
0.0921282
1.00000
-0.000624931
"time" 7.40000e-10
"group" 0.378465
0.0940341
1.00000
-0.000621535
"time" 7.50000e-10
"group" 0.381812
0.0959357
1.00000
-0.000618188
"time" 7.60000e-10
"group" 0.385112
0.0978326
1.00000
-0.000614888
"time" 7.70000e-10
"group" 0.388365
0.0997243
1.00000
-0.000611635
"time" 7.80000e-10
"group" 0.391573
0.101611
1.00000
-0.000608427
"time" 7.90000e-10
"group" 0.394735
0.103491
1.00000
-0.000605265
"time" 8.00000e-10
"group" 0.397854
0.105365
1.00000
-0.000602146
"time" 8.10000e-10
"group" 0.400929
0.107233
1.00000
-0.000599071
"time" 8.20000e-10
"group" 0.403962
0.109094
1.00000
-0.000596038
"time" 8.30000e-10
"group" 0.406953
0.110948
1.00000
-0.000593047
"time" 8.40000e-10
"group" 0.409904
0.112795
1.00000
-0.000590096
"time" 8.50000e-10
"group" 0.412814
0.114634
1.00000
-0.000587186
"time" 8.60000e-10
"group" 0.415685
0.116466
1.00000
-0.000584315
"time" 8.70000e-10
"group" 0.418517
0.118289
1.00000
-0.000581483
"time" 8.80000e-10
"group" 0.421310
0.120104
1.00000
-0.000578690
"time" 8.90000e-10
"group" 0.424067
0.121911
1.00000
-0.000575933
"time" 9.00000e-10
"group" 0.426787
0.123709
1.00000
-0.000573213
"time" 9.10000e-10
"group" 0.429470
0.125498
1.00000
-0.000570530
"time" 9.20000e-10
"group" 0.432118
0.127278
1.00000
-0.000567882
"time" 9.30000e-10
"group" 0.434732
0.129049
1.00000
-0.000565268
"time" 9.40000e-10
"group" 0.437311
0.130811
1.00000
-0.000562689
"time" 9.50000e-10
"group" 0.439856
0.132563
1.00000
-0.000560144
"time" 9.60000e-10
"group" 0.442368
0.134305
1.00000
-0.000557632
"time" 9.70000e-10
"group" 0.444848
0.136038
1.00000
-0.000555152
"time" 9.80000e-10
"group" 0.447296
0.137761
1.00000
-0.000552704
"time" 9.90000e-10
"group" 0.449712
0.139473
1.00000
-0.000550288
"time" 1.00000e-09
"group" 0.452097
0.141176
1.00000
-0.000547903
"time" 1.01000e-09
"group" 0.454452
0.142868
1.00000
-0.000545548
"time" 1.02000e-09
"group" 0.456777
0.144550
1.00000
-0.000543223
"time" 1.03000e-09
"group" 0.459072
0.146222
1.00000
-0.000540928
"time" 1.04000e-09
"group" 0.461339
0.147883
1.00000
-0.000538661
"time" 1.05000e-09
"group" 0.463577
0.149533
1.00000
-0.000536423
"time" 1.06000e-09
"group" 0.465787
0.151173
1.00000
-0.000534213
"time" 1.07000e-09
"group" 0.467969
0.152802
1.00000
-0.000532031
"time" 1.08000e-09
"group" 0.470125
0.154420
1.00000
-0.000529875
"time" 1.09000e-09
"group" 0.472253
0.156027
1.00000
-0.000527747
"time" 1.10000e-09
"group" 0.474356
0.157624
1.00000
-0.000525644
"time" 1.11000e-09
"group" 0.476432
0.159209
1.00000
-0.000523568
"time" 1.12000e-09
"group" 0.478483
0.160784
1.00000
-0.000521517
"time" 1.13000e-09
"group" 0.480509
0.162348
1.00000
-0.000519491
"time" 1.14000e-09
"group" 0.482510
0.163900
1.00000
-0.000517490
"time" 1.15000e-09
"group" 0.484487
0.165442
1.00000
-0.000515513
"time" 1.16000e-09
"group" 0.486440
0.166972
1.00000
-0.000513560
"time" 1.17000e-09
"group" 0.488369
0.168492
1.00000
-0.000511631
"time" 1.18000e-09
"group" 0.490275
0.170000
1.00000
-0.000509725
"time" 1.19000e-09
"group" 0.492158
0.171497
1.00000
-0.000507842
"time" 1.20000e-09
"group" 0.494019
0.172983
1.00000
-0.000505981
"time" 1.21000e-09
"group" 0.495858
0.174458
1.00000
-0.000504142
"time" 1.22000e-09
"group" 0.497674
0.175922
1.00000
-0.000502326
"time" 1.23000e-09
"group" 0.499469
0.177375
1.00000
-0.000500531
"time" 1.24000e-09
"group" 0.501243
0.178817
1.00000
-0.000498757
"time" 1.25000e-09
"group" 0.502996
0.180247
1.00000
-0.000497004
"time" 1.26000e-09
"group" 0.504729
0.181667
1.00000
-0.000495271
"time" 1.27000e-09
"group" 0.506441
0.183075
1.00000
-0.000493559
"time" 1.28000e-09
"group" 0.508133
0.184472
1.00000
-0.000491867
"time" 1.29000e-09
"group" 0.509805
0.185859
1.00000
-0.000490195
"time" 1.30000e-09
"group" 0.511458
0.187234
1.00000
-0.000488542
"time" 1.31000e-09
"group" 0.513092
0.188599
1.00000
-0.000486908
"time" 1.32000e-09
"group" 0.514707
0.189952
1.00000
-0.000485293
"time" 1.33000e-09
"group" 0.516303
0.191295
1.00000
-0.000483697
"time" 1.34000e-09
"group" 0.517881
0.192626
1.00000
-0.000482119
"time" 1.35000e-09
"group" 0.519440
0.193947
1.00000
-0.000480560
"time" 1.36000e-09
"group" 0.520982
0.195257
1.00000
-0.000479018
"time" 1.37000e-09
"group" 0.522506
0.196557
1.00000
-0.000477494
"time" 1.38000e-09
"group" 0.524013
0.197845
1.00000
-0.000475987
"time" 1.39000e-09
"group" 0.525503
0.199123
1.00000
-0.000474497
"time" 1.40000e-09
"group" 0.526976
0.200390
1.00000
-0.000473024
"time" 1.41000e-09
"group" 0.528432
0.201647
1.00000
-0.000471568
"time" 1.42000e-09
"group" 0.529872
0.202893
1.00000
-0.000470128
"time" 1.43000e-09
"group" 0.531295
0.204129
1.00000
-0.000468705
"time" 1.44000e-09
"group" 0.532703
0.205354
1.00000
-0.000467297
"time" 1.45000e-09
"group" 0.534094
0.206569
1.00000
-0.000465906
"time" 1.46000e-09
"group" 0.535471
0.207773
1.00000
-0.000464529
"time" 1.47000e-09
"group" 0.536831
0.208967
1.00000
-0.000463169
"time" 1.48000e-09
"group" 0.538177
0.210151
1.00000
-0.000461823
"time" 1.49000e-09
"group" 0.539507
0.211325
1.00000
-0.000460493
"time" 1.50000e-09
"group" 0.540823
0.212488
1.00000
-0.000459177
"time" 1.51000e-09
"group" 0.542125
0.213642
1.00000
-0.000457875
"time" 1.52000e-09
"group" 0.543411
0.214785
1.00000
-0.000456589
"time" 1.53000e-09
"group" 0.544684
0.215919
1.00000
-0.000455316
"time" 1.54000e-09
"group" 0.545943
0.217042
1.00000
-0.000454057
"time" 1.55000e-09
"group" 0.547187
0.218156
1.00000
-0.000452813
"time" 1.56000e-09
"group" 0.548418
0.219260
1.00000
-0.000451582
"time" 1.57000e-09
"group" 0.549636
0.220354
1.00000
-0.000450364
"time" 1.58000e-09
"group" 0.550840
0.221438
1.00000
-0.000449160
"time" 1.59000e-09
"group" 0.552031
0.222513
1.00000
-0.000447969
"time" 1.60000e-09
"group" 0.553209
0.223579
1.00000
-0.000446791
"time" 1.61000e-09
"group" 0.554375
0.224634
1.00000
-0.000445625
"time" 1.62000e-09
"group" 0.555527
0.225681
1.00000
-0.000444473
"time" 1.63000e-09
"group" 0.556667
0.226718
1.00000
-0.000443333
"time" 1.64000e-09
"group" 0.557795
0.227746
1.00000
-0.000442205
"time" 1.65000e-09
"group" 0.558911
0.228764
1.00000
-0.000441089
"time" 1.66000e-09
"group" 0.560014
0.229773
1.00000
-0.000439986
"time" 1.67000e-09
"group" 0.561106
0.230773
1.00000
-0.000438894
"time" 1.68000e-09
"group" 0.562185
0.231764
1.00000
-0.000437815
"time" 1.69000e-09
"group" 0.563254
0.232747
1.00000
-0.000436746
"time" 1.70000e-09
"group" 0.564310
0.233720
1.00000
-0.000435690
"time" 1.71000e-09
"group" 0.565356
0.234684
1.00000
-0.000434644
"time" 1.72000e-09
"group" 0.566390
0.235640
1.00000
-0.000433610
"time" 1.73000e-09
"group" 0.567413
0.236586
1.00000
-0.000432587
"time" 1.74000e-09
"group" 0.568425
0.237524
1.00000
-0.000431575
"time" 1.75000e-09
"group" 0.569427
0.238454
1.00000
-0.000430573
"time" 1.76000e-09
"group" 0.570417
0.239375
1.00000
-0.000429583
"time" 1.77000e-09
"group" 0.571398
0.240287
1.00000
-0.000428602
"time" 1.78000e-09
"group" 0.572367
0.241191
1.00000
-0.000427633
"time" 1.79000e-09
"group" 0.573327
0.242087
1.00000
-0.000426673
"time" 1.80000e-09
"group" 0.574276
0.242975
1.00000
-0.000425724
"time" 1.81000e-09
"group" 0.575215
0.243854
1.00000
-0.000424785
"time" 1.82000e-09
"group" 0.576145
0.244725
1.00000
-0.000423855
"time" 1.83000e-09
"group" 0.577064
0.245588
1.00000
-0.000422936
"time" 1.84000e-09
"group" 0.577974
0.246443
1.00000
-0.000422026
"time" 1.85000e-09
"group" 0.578874
0.247290
1.00000
-0.000421126
"time" 1.86000e-09
"group" 0.579765
0.248129
1.00000
-0.000420235
"time" 1.87000e-09
"group" 0.580646
0.248960
1.00000
-0.000419354
"time" 1.88000e-09
"group" 0.581518
0.249783
1.00000
-0.000418482
"time" 1.89000e-09
"group" 0.582381
0.250599
1.00000
-0.000417619
"time" 1.90000e-09
"group" 0.583235
0.251407
1.00000
-0.000416765
"time" 1.91000e-09
"group" 0.584080
0.252207
1.00000
-0.000415920
"time" 1.92000e-09
"group" 0.584916
0.253000
1.00000
-0.000415084
"time" 1.93000e-09
"group" 0.585744
0.253786
1.00000
-0.000414256
"time" 1.94000e-09
"group" 0.586562
0.254564
1.00000
-0.000413438
"time" 1.95000e-09
"group" 0.587373
0.255334
1.00000
-0.000412627
"time" 1.96000e-09
"group" 0.588174
0.256098
1.00000
-0.000411826
"time" 1.97000e-09
"group" 0.588968
0.256854
1.00000
-0.000411032
"time" 1.98000e-09
"group" 0.589753
0.257603
1.00000
-0.000410247
"time" 1.99000e-09
"group" 0.590530
0.258345
1.00000
-0.000409470
"time" 2.00000e-09
"group" 0.591299
0.259080
1.00000
-0.000408701
"time" 2.01000e-09
"group" 0.592059
0.259808
1.00000
-0.000407941
"time" 2.02000e-09
"group" 0.592812
0.260529
1.00000
-0.000407188
"time" 2.03000e-09
"group" 0.593558
0.261243
1.00000
-0.000406442
"time" 2.04000e-09
"group" 0.594295
0.261950
1.00000
-0.000405705
"time" 2.05000e-09
"group" 0.595025
0.262651
1.00000
-0.000404975
"time" 2.06000e-09
"group" 0.595747
0.263345
1.00000
-0.000404253
"time" 2.07000e-09
"group" 0.596462
0.264032
1.00000
-0.000403538
"time" 2.08000e-09
"group" 0.597169
0.264713
1.00000
-0.000402831
"time" 2.09000e-09
"group" 0.597870
0.265387
1.00000
-0.000402130
"time" 2.10000e-09
"group" 0.598562
0.266055
1.00000
-0.000401438
"time" 2.11000e-09
"group" 0.599248
0.266716
1.00000
-0.000400752
"time" 2.12000e-09
"group" 0.599927
0.267371
1.00000
-0.000400073
"time" 2.13000e-09
"group" 0.600599
0.268020
1.00000
-0.000399401
"time" 2.14000e-09
"group" 0.601263
0.268662
1.00000
-0.000398737
"time" 2.15000e-09
"group" 0.601921
0.269299
1.00000
-0.000398079
"time" 2.16000e-09
"group" 0.602573
0.269929
1.00000
-0.000397427
"time" 2.17000e-09
"group" 0.603217
0.270553
1.00000
-0.000396783
"time" 2.18000e-09
"group" 0.603855
0.271171
1.00000
-0.000396145
"time" 2.19000e-09
"group" 0.604486
0.271783
1.00000
-0.000395514
"time" 2.20000e-09
"group" 0.605111
0.272390
1.00000
-0.000394889
"time" 2.21000e-09
"group" 0.605730
0.272990
1.00000
-0.000394270
"time" 2.22000e-09
"group" 0.606342
0.273585
1.00000
-0.000393658
"time" 2.23000e-09
"group" 0.606948
0.274174
1.00000
-0.000393052
"time" 2.24000e-09
"group" 0.607548
0.274757
1.00000
-0.000392452
"time" 2.25000e-09
"group" 0.608141
0.275334
1.00000
-0.000391859
"time" 2.26000e-09
"group" 0.608729
0.275906
1.00000
-0.000391271
"time" 2.27000e-09
"group" 0.609310
0.276473
1.00000
-0.000390690
"time" 2.28000e-09
"group" 0.609886
0.277034
1.00000
-0.000390114
"time" 2.29000e-09
"group" 0.610456
0.277589
1.00000
-0.000389544
"time" 2.30000e-09
"group" 0.611020
0.278139
1.00000
-0.000388980
"time" 2.31000e-09
"group" 0.611578
0.278684
1.00000
-0.000388422
"time" 2.32000e-09
"group" 0.612130
0.279224
1.00000
-0.000387870
"time" 2.33000e-09
"group" 0.612677
0.279758
1.00000
-0.000387323
"time" 2.34000e-09
"group" 0.613218
0.280287
1.00000
-0.000386782
"time" 2.35000e-09
"group" 0.613754
0.280811
1.00000
-0.000386246
"time" 2.36000e-09
"group" 0.614284
0.281330
1.00000
-0.000385716
"time" 2.37000e-09
"group" 0.614809
0.281843
1.00000
-0.000385191
"time" 2.38000e-09
"group" 0.615329
0.282352
1.00000
-0.000384671
"time" 2.39000e-09
"group" 0.615843
0.282856
1.00000
-0.000384157
"time" 2.40000e-09
"group" 0.616352
0.283355
1.00000
-0.000383648
"time" 2.41000e-09
"group" 0.616856
0.283849
1.00000
-0.000383144
"time" 2.42000e-09
"group" 0.617355
0.284338
1.00000
-0.000382645
"time" 2.43000e-09
"group" 0.617849
0.284822
1.00000
-0.000382151
"time" 2.44000e-09
"group" 0.618338
0.285302
1.00000
-0.000381662
"time" 2.45000e-09
"group" 0.618822
0.285777
1.00000
-0.000381178
"time" 2.46000e-09
"group" 0.619300
0.286247
1.00000
-0.000380700
"time" 2.47000e-09
"group" 0.619774
0.286713
1.00000
-0.000380226
"time" 2.48000e-09
"group" 0.620244
0.287174
1.00000
-0.000379756
"time" 2.49000e-09
"group" 0.620708
0.287631
1.00000
-0.000379292
"time" 2.50000e-09
"group" 0.621168
0.288083
1.00000
-0.000378832
"time" 2.51000e-09
"group" 0.621623
0.288531
1.00000
-0.000378377
"time" 2.52000e-09
"group" 0.622074
0.288975
1.00000
-0.000377926
"time" 2.53000e-09
"group" 0.622520
0.289414
1.00000
-0.000377480
"time" 2.54000e-09
"group" 0.622961
0.289849
1.00000
-0.000377039
"time" 2.55000e-09
"group" 0.623398
0.290279
1.00000
-0.000376602
"time" 2.56000e-09
"group" 0.623831
0.290705
1.00000
-0.000376169
"time" 2.57000e-09
"group" 0.624259
0.291128
1.00000
-0.000375741
"time" 2.58000e-09
"group" 0.624683
0.291546
1.00000
-0.000375317
"time" 2.59000e-09
"group" 0.625103
0.291959
1.00000
-0.000374897
"time" 2.60000e-09
"group" 0.625518
0.292369
1.00000
-0.000374482
"time" 2.61000e-09
"group" 0.625930
0.292775
1.00000
-0.000374070
"time" 2.62000e-09
"group" 0.626337
0.293177
1.00000
-0.000373663
"time" 2.63000e-09
"group" 0.626740
0.293575
1.00000
-0.000373260
"time" 2.64000e-09
"group" 0.627139
0.293969
1.00000
-0.000372861
"time" 2.65000e-09
"group" 0.627534
0.294359
1.00000
-0.000372466
"time" 2.66000e-09
"group" 0.627925
0.294745
1.00000
-0.000372075
"time" 2.67000e-09
"group" 0.628312
0.295128
1.00000
-0.000371688
"time" 2.68000e-09
"group" 0.628695
0.295506
1.00000
-0.000371305
"time" 2.69000e-09
"group" 0.629074
0.295881
1.00000
-0.000370926
"time" 2.70000e-09
"group" 0.629449
0.296253
1.00000
-0.000370551
"time" 2.71000e-09
"group" 0.629821
0.296620
1.00000
-0.000370179
"time" 2.72000e-09
"group" 0.630189
0.296984
1.00000
-0.000369811
"time" 2.73000e-09
"group" 0.630553
0.297345
1.00000
-0.000369447
"time" 2.74000e-09
"group" 0.630914
0.297701
1.00000
-0.000369086
"time" 2.75000e-09
"group" 0.631271
0.298055
1.00000
-0.000368729
"time" 2.76000e-09
"group" 0.631624
0.298405
1.00000
-0.000368376
"time" 2.77000e-09
"group" 0.631974
0.298751
1.00000
-0.000368026
"time" 2.78000e-09
"group" 0.632320
0.299094
1.00000
-0.000367680
"time" 2.79000e-09
"group" 0.632663
0.299434
1.00000
-0.000367337
"time" 2.80000e-09
"group" 0.633002
0.299770
1.00000
-0.000366998
"time" 2.81000e-09
"group" 0.633338
0.300103
1.00000
-0.000366662
"time" 2.82000e-09
"group" 0.633671
0.300433
1.00000
-0.000366329
"time" 2.83000e-09
"group" 0.634000
0.300759
1.00000
-0.000366000
"time" 2.84000e-09
"group" 0.634326
0.301082
1.00000
-0.000365674
"time" 2.85000e-09
"group" 0.634649
0.301403
1.00000
-0.000365351
"time" 2.86000e-09
"group" 0.634968
0.301719
1.00000
-0.000365032
"time" 2.87000e-09
"group" 0.635285
0.302033
1.00000
-0.000364715
"time" 2.88000e-09
"group" 0.635598
0.302344
1.00000
-0.000364402
"time" 2.89000e-09
"group" 0.635908
0.302651
1.00000
-0.000364092
"time" 2.90000e-09
"group" 0.636214
0.302956
1.00000
-0.000363786
"time" 2.91000e-09
"group" 0.636518
0.303257
1.00000
-0.000363482
"time" 2.92000e-09
"group" 0.636819
0.303556
1.00000
-0.000363181
"time" 2.93000e-09
"group" 0.637117
0.303852
1.00000
-0.000362883
"time" 2.94000e-09
"group" 0.637411
0.304144
1.00000
-0.000362589
"time" 2.95000e-09
"group" 0.637703
0.304434
1.00000
-0.000362297
"time" 2.96000e-09
"group" 0.637992
0.304721
1.00000
-0.000362008
"time" 2.97000e-09
"group" 0.638278
0.305005
1.00000
-0.000361722
"time" 2.98000e-09
"group" 0.638561
0.305286
1.00000
-0.000361439
"time" 2.99000e-09
"group" 0.638841
0.305565
1.00000
-0.000361159
"time" 3.00000e-09
"group" 0.639119
0.305841
1.00000
-0.000360881
"time" 3.01000e-09
"group" 0.639393
0.306114
1.00000
-0.000360607
"time" 3.02000e-09
"group" 0.639665
0.306384
1.00000
-0.000360335
"time" 3.03000e-09
"group" 0.639934
0.306652
1.00000
-0.000360066
"time" 3.04000e-09
"group" 0.640201
0.306917
1.00000
-0.000359799
"time" 3.05000e-09
"group" 0.640465
0.307179
1.00000
-0.000359535
"time" 3.06000e-09
"group" 0.640726
0.307439
1.00000
-0.000359274
"time" 3.07000e-09
"group" 0.640984
0.307696
1.00000
-0.000359016
"time" 3.08000e-09
"group" 0.641240
0.307951
1.00000
-0.000358760
"time" 3.09000e-09
"group" 0.641494
0.308203
1.00000
-0.000358506
"time" 3.10000e-09
"group" 0.641745
0.308452
1.00000
-0.000358255
"time" 3.11000e-09
"group" 0.641993
0.308700
1.00000
-0.000358007
"time" 3.12000e-09
"group" 0.642239
0.308944
1.00000
-0.000357761
"time" 3.13000e-09
"group" 0.642482
0.309187
1.00000
-0.000357518
"time" 3.14000e-09
"group" 0.642723
0.309427
1.00000
-0.000357277
"time" 3.15000e-09
"group" 0.642962
0.309664
1.00000
-0.000357038
"time" 3.16000e-09
"group" 0.643198
0.309899
1.00000
-0.000356802
"time" 3.17000e-09
"group" 0.643432
0.310132
1.00000
-0.000356568
"time" 3.18000e-09
"group" 0.643664
0.310363
1.00000
-0.000356336
"time" 3.19000e-09
"group" 0.643893
0.310591
1.00000
-0.000356107
"time" 3.20000e-09
"group" 0.644120
0.310817
1.00000
-0.000355880
"time" 3.21000e-09
"group" 0.644344
0.311041
1.00000
-0.000355656
"time" 3.22000e-09
"group" 0.644567
0.311262
1.00000
-0.000355433
"time" 3.23000e-09
"group" 0.644787
0.311482
1.00000
-0.000355213
"time" 3.24000e-09
"group" 0.645005
0.311699
1.00000
-0.000354995
"time" 3.25000e-09
"group" 0.645221
0.311914
1.00000
-0.000354779
"time" 3.26000e-09
"group" 0.645434
0.312127
1.00000
-0.000354566
"time" 3.27000e-09
"group" 0.645646
0.312337
1.00000
-0.000354354
"time" 3.28000e-09
"group" 0.645855
0.312546
1.00000
-0.000354145
"time" 3.29000e-09
"group" 0.646063
0.312753
1.00000
-0.000353937
"time" 3.30000e-09
"group" 0.646268
0.312957
1.00000
-0.000353732
"time" 3.31000e-09
"group" 0.646471
0.313160
1.00000
-0.000353529
"time" 3.32000e-09
"group" 0.646672
0.313360
1.00000
-0.000353328
"time" 3.33000e-09
"group" 0.646872
0.313559
1.00000
-0.000353128
"time" 3.34000e-09
"group" 0.647069
0.313755
1.00000
-0.000352931
"time" 3.35000e-09
"group" 0.647264
0.313950
1.00000
-0.000352736
"time" 3.36000e-09
"group" 0.647457
0.314143
1.00000
-0.000352543
"time" 3.37000e-09
"group" 0.647648
0.314333
1.00000
-0.000352352
"time" 3.38000e-09
"group" 0.647838
0.314522
1.00000
-0.000352162
"time" 3.39000e-09
"group" 0.648025
0.314709
1.00000
-0.000351975
"time" 3.40000e-09
"group" 0.648211
0.314894
1.00000
-0.000351789
"time" 3.41000e-09
"group" 0.648395
0.315078
1.00000
-0.000351605
"time" 3.42000e-09
"group" 0.648577
0.315259
1.00000
-0.000351423
"time" 3.43000e-09
"group" 0.648757
0.315439
1.00000
-0.000351243
"time" 3.44000e-09
"group" 0.648935
0.315617
1.00000
-0.000351065
"time" 3.45000e-09
"group" 0.649112
0.315793
1.00000
-0.000350888
"time" 3.46000e-09
"group" 0.649287
0.315967
1.00000
-0.000350713
"time" 3.47000e-09
"group" 0.649460
0.316140
1.00000
-0.000350540
"time" 3.48000e-09
"group" 0.649631
0.316311
1.00000
-0.000350369
"time" 3.49000e-09
"group" 0.649801
0.316480
1.00000
-0.000350199
"time" 3.50000e-09
"group" 0.649969
0.316648
1.00000
-0.000350031
"time" 3.51000e-09
"group" 0.650135
0.316814
1.00000
-0.000349865
"time" 3.52000e-09
"group" 0.650300
0.316978
1.00000
-0.000349700
"time" 3.53000e-09
"group" 0.650463
0.317141
1.00000
-0.000349537
"time" 3.54000e-09
"group" 0.650624
0.317302
1.00000
-0.000349376
"time" 3.55000e-09
"group" 0.650784
0.317461
1.00000
-0.000349216
"time" 3.56000e-09
"group" 0.650942
0.317619
1.00000
-0.000349058
"time" 3.57000e-09
"group" 0.651098
0.317775
1.00000
-0.000348902
"time" 3.58000e-09
"group" 0.651253
0.317930
1.00000
-0.000348747
"time" 3.59000e-09
"group" 0.651407
0.318083
1.00000
-0.000348593
"time" 3.60000e-09
"group" 0.651559
0.318235
1.00000
-0.000348441
"time" 3.61000e-09
"group" 0.651709
0.318385
1.00000
-0.000348291
"time" 3.62000e-09
"group" 0.651858
0.318534
1.00000
-0.000348142
"time" 3.63000e-09
"group" 0.652006
0.318681
1.00000
-0.000347994
"time" 3.64000e-09
"group" 0.652152
0.318826
1.00000
-0.000347848
"time" 3.65000e-09
"group" 0.652296
0.318971
1.00000
-0.000347704
"time" 3.66000e-09
"group" 0.652439
0.319114
1.00000
-0.000347561
"time" 3.67000e-09
"group" 0.652581
0.319255
1.00000
-0.000347419
"time" 3.68000e-09
"group" 0.652721
0.319395
1.00000
-0.000347279
"time" 3.69000e-09
"group" 0.652860
0.319534
1.00000
-0.000347140
"time" 3.70000e-09
"group" 0.652997
0.319671
1.00000
-0.000347003
"time" 3.71000e-09
"group" 0.653133
0.319807
1.00000
-0.000346867
"time" 3.72000e-09
"group" 0.653268
0.319941
1.00000
-0.000346732
"time" 3.73000e-09
"group" 0.653402
0.320074
1.00000
-0.000346598
"time" 3.74000e-09
"group" 0.653534
0.320206
1.00000
-0.000346466
"time" 3.75000e-09
"group" 0.653664
0.320337
1.00000
-0.000346336
"time" 3.76000e-09
"group" 0.653794
0.320466
1.00000
-0.000346206
"time" 3.77000e-09
"group" 0.653922
0.320594
1.00000
-0.000346078
"time" 3.78000e-09
"group" 0.654049
0.320721
1.00000
-0.000345951
"time" 3.79000e-09
"group" 0.654174
0.320846
1.00000
-0.000345826
"time" 3.80000e-09
"group" 0.654299
0.320970
1.00000
-0.000345701
"time" 3.81000e-09
"group" 0.654422
0.321093
1.00000
-0.000345578
"time" 3.82000e-09
"group" 0.654544
0.321215
1.00000
-0.000345456
"time" 3.83000e-09
"group" 0.654664
0.321336
1.00000
-0.000345336
"time" 3.84000e-09
"group" 0.654784
0.321455
1.00000
-0.000345216
"time" 3.85000e-09
"group" 0.654902
0.321573
1.00000
-0.000345098
"time" 3.86000e-09
"group" 0.655019
0.321690
1.00000
-0.000344981
"time" 3.87000e-09
"group" 0.655135
0.321806
1.00000
-0.000344865
"time" 3.88000e-09
"group" 0.655250
0.321921
1.00000
-0.000344750
"time" 3.89000e-09
"group" 0.655364
0.322034
1.00000
-0.000344636
"time" 3.90000e-09
"group" 0.655476
0.322147
1.00000
-0.000344524
"time" 3.91000e-09
"group" 0.655588
0.322258
1.00000
-0.000344412
"time" 3.92000e-09
"group" 0.655698
0.322368
1.00000
-0.000344302
"time" 3.93000e-09
"group" 0.655807
0.322477
1.00000
-0.000344193
"time" 3.94000e-09
"group" 0.655915
0.322585
1.00000
-0.000344085
"time" 3.95000e-09
"group" 0.656022
0.322692
1.00000
-0.000343978
"time" 3.96000e-09
"group" 0.656128
0.322798
1.00000
-0.000343872
"time" 3.97000e-09
"group" 0.656233
0.322903
1.00000
-0.000343767
"time" 3.98000e-09
"group" 0.656337
0.323006
1.00000
-0.000343663
"time" 3.99000e-09
"group" 0.656440
0.323109
1.00000
-0.000343560
"time" 4.00000e-09
"group" 0.656541
0.323211
1.00000
-0.000343459
"time" 4.01000e-09
"group" 0.656642
0.323312
1.00000
-0.000343358
"time" 4.02000e-09
"group" 0.656742
0.323411
1.00000
-0.000343258
"time" 4.03000e-09
"group" 0.656841
0.323510
1.00000
-0.000343159
"time" 4.04000e-09
"group" 0.656939
0.323608
1.00000
-0.000343061
"time" 4.05000e-09
"group" 0.657035
0.323704
1.00000
-0.000342965
"time" 4.06000e-09
"group" 0.657131
0.323800
1.00000
-0.000342869
"time" 4.07000e-09
"group" 0.657226
0.323895
1.00000
-0.000342774
"time" 4.08000e-09
"group" 0.657320
0.323989
1.00000
-0.000342680
"time" 4.09000e-09
"group" 0.657413
0.324082
1.00000
-0.000342587
"time" 4.10000e-09
"group" 0.657505
0.324174
1.00000
-0.000342495
"time" 4.11000e-09
"group" 0.657596
0.324265
1.00000
-0.000342404
"time" 4.12000e-09
"group" 0.657687
0.324355
1.00000
-0.000342313
"time" 4.13000e-09
"group" 0.657776
0.324445
1.00000
-0.000342224
"time" 4.14000e-09
"group" 0.657865
0.324533
1.00000
-0.000342135
"time" 4.15000e-09
"group" 0.657952
0.324621
1.00000
-0.000342048
"time" 4.16000e-09
"group" 0.658039
0.324707
1.00000
-0.000341961
"time" 4.17000e-09
"group" 0.658125
0.324793
1.00000
-0.000341875
"time" 4.18000e-09
"group" 0.658210
0.324878
1.00000
-0.000341790
"time" 4.19000e-09
"group" 0.658294
0.324962
1.00000
-0.000341706
"time" 4.20000e-09
"group" 0.658377
0.325045
1.00000
-0.000341623
"time" 4.21000e-09
"group" 0.658460
0.325128
1.00000
-0.000341540
"time" 4.22000e-09
"group" 0.658541
0.325210
1.00000
-0.000341459
"time" 4.23000e-09
"group" 0.658622
0.325290
1.00000
-0.000341378
"time" 4.24000e-09
"group" 0.658702
0.325370
1.00000
-0.000341298
"time" 4.25000e-09