HEADER
"PSFversion" "1.00"
"simulator" "spectre"
"version" "15.1.0.644.isr13"
"date" "8:05:08 AM, Wed Jan 11, 2017"
"design" "// Generated for: spectre"
"analysis type" "info"
"analysis name" "designParamVals"
"analysis description" "Circuit Information"
"xVecSorted" "unknown"
"tolerance.relative" 0.00100000
TYPE
"top-level" STRUCT(
"temp" FLOAT DOUBLE
"tnom" FLOAT DOUBLE
"time" FLOAT DOUBLE
"_EXPR_1" FLOAT DOUBLE
"cl" FLOAT DOUBLE
"iin_phase" FLOAT DOUBLE
"ron" FLOAT DOUBLE
"tper" FLOAT DOUBLE
"tr" FLOAT DOUBLE
"tmishe" FLOAT DOUBLE
"shevmod" FLOAT DOUBLE
"sheimod" FLOAT DOUBLE
"tr_start" FLOAT DOUBLE
"tr_end" FLOAT DOUBLE
"sorting_num" FLOAT DOUBLE
"alter_flag" FLOAT DOUBLE
"sheqaflag" FLOAT DOUBLE
"tmishe_mos_svt" FLOAT DOUBLE
"shevmod_mos_svt" FLOAT DOUBLE
"sheimod_mos_svt" FLOAT DOUBLE
"tr_start_mos_svt" FLOAT DOUBLE
"tr_end_mos_svt" FLOAT DOUBLE
"alter_flag_mos_svt" FLOAT DOUBLE
"ccodflag_mos_svt" FLOAT DOUBLE
"ccosflag_mos_svt" FLOAT DOUBLE
"rcodflag_mos_svt" FLOAT DOUBLE
"rcosflag_mos_svt" FLOAT DOUBLE
"rgflag_mos_svt" FLOAT DOUBLE
"ngconflag_mos_svt" FLOAT DOUBLE
"igflag_mos_svt" FLOAT DOUBLE
"iboff_flag_mos_svt" FLOAT DOUBLE
"ccoskewflag_mos_svt" FLOAT DOUBLE
"rgskewflag_mos_svt" FLOAT DOUBLE
"sigma_factorp_svt" FLOAT DOUBLE
"globalflag_mos_svt" FLOAT DOUBLE
"totalflag_mos_svt" FLOAT DOUBLE
"mismatchflag_mos_svt" FLOAT DOUBLE
"matchingflag_mos_svt" FLOAT DOUBLE
"edgeflag_mos_svt" FLOAT DOUBLE
"global_factorp_svt" FLOAT DOUBLE
"local_factorp_svt" FLOAT DOUBLE
"sigma_factorn_svt" FLOAT DOUBLE
"global_factorn_svt" FLOAT DOUBLE
"local_factorn_svt" FLOAT DOUBLE
"noiseflagn_mos_svt" FLOAT DOUBLE
"noiseflagn_mc_mos_svt" FLOAT DOUBLE
"fnc_sigma_factorn_svt" FLOAT DOUBLE
"fnc_global_factorn_svt" FLOAT DOUBLE
"noiseflagp_mos_svt" FLOAT DOUBLE
"noiseflagp_mc_mos_svt" FLOAT DOUBLE
"fnc_sigma_factorp_svt" FLOAT DOUBLE
"fnc_global_factorp_svt" FLOAT DOUBLE
"toxp_svt" FLOAT DOUBLE
"dxlp_svt" FLOAT DOUBLE
"dtfinp_svt" FLOAT DOUBLE
"dhfinp_svt" FLOAT DOUBLE
"cjdrwp_svt" FLOAT DOUBLE
"cjswgp_svt" FLOAT DOUBLE
"cjswp_svt" FLOAT DOUBLE
"cgop_svt" FLOAT DOUBLE
"cglp_svt" FLOAT DOUBLE
"ddlcp_svt" FLOAT DOUBLE
"ccoddrwp_svt" FLOAT DOUBLE
"ccosdrwp_svt" FLOAT DOUBLE
"cfddrwp_svt" FLOAT DOUBLE
"cfsdrwp_svt" FLOAT DOUBLE
"ddvtshiftp_svt" FLOAT DOUBLE
"dldvtshiftp_svt" FLOAT DOUBLE
"dndvtshiftp_svt" FLOAT DOUBLE
"dpdvtshiftp_svt" FLOAT DOUBLE
"dcitp_svt" FLOAT DOUBLE
"dlcitp_svt" FLOAT DOUBLE
"dncitp_svt" FLOAT DOUBLE
"dpcitp_svt" FLOAT DOUBLE
"dk0sip_svt" FLOAT DOUBLE
"dlk0sip_svt" FLOAT DOUBLE
"dnk0sip_svt" FLOAT DOUBLE
"dpk0sip_svt" FLOAT DOUBLE
"deta0p_svt" FLOAT DOUBLE
"dleta0p_svt" FLOAT DOUBLE
"dneta0p_svt" FLOAT DOUBLE
"dpeta0p_svt" FLOAT DOUBLE
"du0p_svt" FLOAT DOUBLE
"dlu0p_svt" FLOAT DOUBLE
"dnu0p_svt" FLOAT DOUBLE
"dpu0p_svt" FLOAT DOUBLE
"duap_svt" FLOAT DOUBLE
"dluap_svt" FLOAT DOUBLE
"dnuap_svt" FLOAT DOUBLE
"dpuap_svt" FLOAT DOUBLE
"dvsatp_svt" FLOAT DOUBLE
"dlvsatp_svt" FLOAT DOUBLE
"dnvsatp_svt" FLOAT DOUBLE
"dpvsatp_svt" FLOAT DOUBLE
"dksativp_svt" FLOAT DOUBLE
"dlksativp_svt" FLOAT DOUBLE
"dnksativp_svt" FLOAT DOUBLE
"dpksativp_svt" FLOAT DOUBLE
"dpclmp_svt" FLOAT DOUBLE
"dlpclmp_svt" FLOAT DOUBLE
"dnpclmp_svt" FLOAT DOUBLE
"dppclmp_svt" FLOAT DOUBLE
"dpdibl2p_svt" FLOAT DOUBLE
"dlpdibl2p_svt" FLOAT DOUBLE
"dnpdibl2p_svt" FLOAT DOUBLE
"dppdibl2p_svt" FLOAT DOUBLE
"dk1p_svt" FLOAT DOUBLE
"dlk1p_svt" FLOAT DOUBLE
"dnk1p_svt" FLOAT DOUBLE
"dpk1p_svt" FLOAT DOUBLE
"dk1satp_svt" FLOAT DOUBLE
"dlk1satp_svt" FLOAT DOUBLE
"dnk1satp_svt" FLOAT DOUBLE
"dpk1satp_svt" FLOAT DOUBLE
"ducp_svt" FLOAT DOUBLE
"dlucp_svt" FLOAT DOUBLE
"dnucp_svt" FLOAT DOUBLE
"dpucp_svt" FLOAT DOUBLE
"dkt1p_svt" FLOAT DOUBLE
"dlkt1p_svt" FLOAT DOUBLE
"dnkt1p_svt" FLOAT DOUBLE
"dpkt1p_svt" FLOAT DOUBLE
"dtssp_svt" FLOAT DOUBLE
"dltssp_svt" FLOAT DOUBLE
"dntssp_svt" FLOAT DOUBLE
"dptssp_svt" FLOAT DOUBLE
"dutlp_svt" FLOAT DOUBLE
"dlutlp_svt" FLOAT DOUBLE
"dnutlp_svt" FLOAT DOUBLE
"dputlp_svt" FLOAT DOUBLE
"datp_svt" FLOAT DOUBLE
"dlatp_svt" FLOAT DOUBLE
"dnatp_svt" FLOAT DOUBLE
"dpatp_svt" FLOAT DOUBLE
"duc1p_svt" FLOAT DOUBLE
"dluc1p_svt" FLOAT DOUBLE
"dnuc1p_svt" FLOAT DOUBLE
"dpuc1p_svt" FLOAT DOUBLE
"ntoxp_svt" FLOAT DOUBLE
"rcoskewp_svt" FLOAT DOUBLE
"ff_flagp_svt" FLOAT DOUBLE
"fs_flagp_svt" FLOAT DOUBLE
"sf_flagp_svt" FLOAT DOUBLE
"ss_flagp_svt" FLOAT DOUBLE
"monte_flagp_svt" FLOAT DOUBLE
"toxn_svt" FLOAT DOUBLE
"dxln_svt" FLOAT DOUBLE
"dtfinn_svt" FLOAT DOUBLE
"dhfinn_svt" FLOAT DOUBLE
"cjdrwn_svt" FLOAT DOUBLE
"cjswn_svt" FLOAT DOUBLE
"cjswgn_svt" FLOAT DOUBLE
"cgon_svt" FLOAT DOUBLE
"cgln_svt" FLOAT DOUBLE
"ddlcn_svt" FLOAT DOUBLE
"cfsdrwn_svt" FLOAT DOUBLE
"cfddrwn_svt" FLOAT DOUBLE
"ccosdrwn_svt" FLOAT DOUBLE
"ccoddrwn_svt" FLOAT DOUBLE
"ddvtshiftn_svt" FLOAT DOUBLE
"dldvtshiftn_svt" FLOAT DOUBLE
"dndvtshiftn_svt" FLOAT DOUBLE
"dpdvtshiftn_svt" FLOAT DOUBLE
"dcitn_svt" FLOAT DOUBLE
"dlcitn_svt" FLOAT DOUBLE
"dncitn_svt" FLOAT DOUBLE
"dpcitn_svt" FLOAT DOUBLE
"dk0sin_svt" FLOAT DOUBLE
"dlk0sin_svt" FLOAT DOUBLE
"dnk0sin_svt" FLOAT DOUBLE
"dpk0sin_svt" FLOAT DOUBLE
"deta0n_svt" FLOAT DOUBLE
"dleta0n_svt" FLOAT DOUBLE
"dneta0n_svt" FLOAT DOUBLE
"dpeta0n_svt" FLOAT DOUBLE
"du0n_svt" FLOAT DOUBLE
"dlu0n_svt" FLOAT DOUBLE
"dnu0n_svt" FLOAT DOUBLE
"dpu0n_svt" FLOAT DOUBLE
"duan_svt" FLOAT DOUBLE
"dluan_svt" FLOAT DOUBLE
"dnuan_svt" FLOAT DOUBLE
"dpuan_svt" FLOAT DOUBLE
"dvsatn_svt" FLOAT DOUBLE
"dlvsatn_svt" FLOAT DOUBLE
"dnvsatn_svt" FLOAT DOUBLE
"dpvsatn_svt" FLOAT DOUBLE
"dksativn_svt" FLOAT DOUBLE
"dlksativn_svt" FLOAT DOUBLE
"dnksativn_svt" FLOAT DOUBLE
"dpksativn_svt" FLOAT DOUBLE
"dpclmn_svt" FLOAT DOUBLE
"dlpclmn_svt" FLOAT DOUBLE
"dnpclmn_svt" FLOAT DOUBLE
"dppclmn_svt" FLOAT DOUBLE
"dpdibl2n_svt" FLOAT DOUBLE
"dlpdibl2n_svt" FLOAT DOUBLE
"dnpdibl2n_svt" FLOAT DOUBLE
"dppdibl2n_svt" FLOAT DOUBLE
"dk1n_svt" FLOAT DOUBLE
"dlk1n_svt" FLOAT DOUBLE
"dnk1n_svt" FLOAT DOUBLE
"dpk1n_svt" FLOAT DOUBLE
"dk1satn_svt" FLOAT DOUBLE
"dlk1satn_svt" FLOAT DOUBLE
"dnk1satn_svt" FLOAT DOUBLE
"dpk1satn_svt" FLOAT DOUBLE
"ducn_svt" FLOAT DOUBLE
"dlucn_svt" FLOAT DOUBLE
"dnucn_svt" FLOAT DOUBLE
"dpucn_svt" FLOAT DOUBLE
"dkt1n_svt" FLOAT DOUBLE
"dlkt1n_svt" FLOAT DOUBLE
"dnkt1n_svt" FLOAT DOUBLE
"dpkt1n_svt" FLOAT DOUBLE
"dtssn_svt" FLOAT DOUBLE
"dltssn_svt" FLOAT DOUBLE
"dntssn_svt" FLOAT DOUBLE
"dptssn_svt" FLOAT DOUBLE
"dutln_svt" FLOAT DOUBLE
"dlutln_svt" FLOAT DOUBLE
"dnutln_svt" FLOAT DOUBLE
"dputln_svt" FLOAT DOUBLE
"duc1n_svt" FLOAT DOUBLE
"dluc1n_svt" FLOAT DOUBLE
"dnuc1n_svt" FLOAT DOUBLE
"dpuc1n_svt" FLOAT DOUBLE
"datn_svt" FLOAT DOUBLE
"dlatn_svt" FLOAT DOUBLE
"dnatn_svt" FLOAT DOUBLE
"dpatn_svt" FLOAT DOUBLE
"ntoxn_svt" FLOAT DOUBLE
"rcoskewn_svt" FLOAT DOUBLE
"ss_flagn_svt" FLOAT DOUBLE
"ff_flagn_svt" FLOAT DOUBLE
"sf_flagn_svt" FLOAT DOUBLE
"fs_flagn_svt" FLOAT DOUBLE
"monte_flagn_svt" FLOAT DOUBLE
"tmishe_mos_hvt" FLOAT DOUBLE
"shevmod_mos_hvt" FLOAT DOUBLE
"sheimod_mos_hvt" FLOAT DOUBLE
"tr_start_mos_hvt" FLOAT DOUBLE
"tr_end_mos_hvt" FLOAT DOUBLE
"alter_flag_mos_hvt" FLOAT DOUBLE
"ccodflag_mos_hvt" FLOAT DOUBLE
"ccosflag_mos_hvt" FLOAT DOUBLE
"rcodflag_mos_hvt" FLOAT DOUBLE
"rcosflag_mos_hvt" FLOAT DOUBLE
"rgflag_mos_hvt" FLOAT DOUBLE
"ngconflag_mos_hvt" FLOAT DOUBLE
"igflag_mos_hvt" FLOAT DOUBLE
"iboff_flag_mos_hvt" FLOAT DOUBLE
"ccoskewflag_mos_hvt" FLOAT DOUBLE
"rgskewflag_mos_hvt" FLOAT DOUBLE
"sigma_factorp_hvt" FLOAT DOUBLE
"globalflag_mos_hvt" FLOAT DOUBLE
"totalflag_mos_hvt" FLOAT DOUBLE
"global_factorp_hvt" FLOAT DOUBLE
"mismatchflag_mos_hvt" FLOAT DOUBLE
"matchingflag_mos_hvt" FLOAT DOUBLE
"edgeflag_mos_hvt" FLOAT DOUBLE
"local_factorp_hvt" FLOAT DOUBLE
"sigma_factorn_hvt" FLOAT DOUBLE
"global_factorn_hvt" FLOAT DOUBLE
"local_factorn_hvt" FLOAT DOUBLE
"noiseflagn_mos_hvt" FLOAT DOUBLE
"noiseflagn_mc_mos_hvt" FLOAT DOUBLE
"fnc_sigma_factorn_hvt" FLOAT DOUBLE
"fnc_global_factorn_hvt" FLOAT DOUBLE
"noiseflagp_mos_hvt" FLOAT DOUBLE
"noiseflagp_mc_mos_hvt" FLOAT DOUBLE
"fnc_sigma_factorp_hvt" FLOAT DOUBLE
"fnc_global_factorp_hvt" FLOAT DOUBLE
"toxp_hvt" FLOAT DOUBLE
"dxlp_hvt" FLOAT DOUBLE
"dtfinp_hvt" FLOAT DOUBLE
"dhfinp_hvt" FLOAT DOUBLE
"cjdrwp_hvt" FLOAT DOUBLE
"cjswgp_hvt" FLOAT DOUBLE
"cjswp_hvt" FLOAT DOUBLE
"cgop_hvt" FLOAT DOUBLE
"cglp_hvt" FLOAT DOUBLE
"ddlcp_hvt" FLOAT DOUBLE
"ccoddrwp_hvt" FLOAT DOUBLE
"ccosdrwp_hvt" FLOAT DOUBLE
"cfddrwp_hvt" FLOAT DOUBLE
"cfsdrwp_hvt" FLOAT DOUBLE
"ddvtshiftp_hvt" FLOAT DOUBLE
"dldvtshiftp_hvt" FLOAT DOUBLE
"dndvtshiftp_hvt" FLOAT DOUBLE
"dpdvtshiftp_hvt" FLOAT DOUBLE
"dcitp_hvt" FLOAT DOUBLE
"dlcitp_hvt" FLOAT DOUBLE
"dncitp_hvt" FLOAT DOUBLE
"dpcitp_hvt" FLOAT DOUBLE
"dk0sip_hvt" FLOAT DOUBLE
"dlk0sip_hvt" FLOAT DOUBLE
"dnk0sip_hvt" FLOAT DOUBLE
"dpk0sip_hvt" FLOAT DOUBLE
"deta0p_hvt" FLOAT DOUBLE
"dleta0p_hvt" FLOAT DOUBLE
"dneta0p_hvt" FLOAT DOUBLE
"dpeta0p_hvt" FLOAT DOUBLE
"du0p_hvt" FLOAT DOUBLE
"dlu0p_hvt" FLOAT DOUBLE
"dnu0p_hvt" FLOAT DOUBLE
"dpu0p_hvt" FLOAT DOUBLE
"duap_hvt" FLOAT DOUBLE
"dluap_hvt" FLOAT DOUBLE
"dnuap_hvt" FLOAT DOUBLE
"dpuap_hvt" FLOAT DOUBLE
"dvsatp_hvt" FLOAT DOUBLE
"dlvsatp_hvt" FLOAT DOUBLE
"dnvsatp_hvt" FLOAT DOUBLE
"dpvsatp_hvt" FLOAT DOUBLE
"dksativp_hvt" FLOAT DOUBLE
"dlksativp_hvt" FLOAT DOUBLE
"dnksativp_hvt" FLOAT DOUBLE
"dpksativp_hvt" FLOAT DOUBLE
"dpclmp_hvt" FLOAT DOUBLE
"dlpclmp_hvt" FLOAT DOUBLE
"dnpclmp_hvt" FLOAT DOUBLE
"dppclmp_hvt" FLOAT DOUBLE
"dpdibl2p_hvt" FLOAT DOUBLE
"dlpdibl2p_hvt" FLOAT DOUBLE
"dnpdibl2p_hvt" FLOAT DOUBLE
"dppdibl2p_hvt" FLOAT DOUBLE
"dk1p_hvt" FLOAT DOUBLE
"dlk1p_hvt" FLOAT DOUBLE
"dnk1p_hvt" FLOAT DOUBLE
"dpk1p_hvt" FLOAT DOUBLE
"dk1satp_hvt" FLOAT DOUBLE
"dlk1satp_hvt" FLOAT DOUBLE
"dnk1satp_hvt" FLOAT DOUBLE
"dpk1satp_hvt" FLOAT DOUBLE
"ducp_hvt" FLOAT DOUBLE
"dlucp_hvt" FLOAT DOUBLE
"dnucp_hvt" FLOAT DOUBLE
"dpucp_hvt" FLOAT DOUBLE
"dkt1p_hvt" FLOAT DOUBLE
"dlkt1p_hvt" FLOAT DOUBLE
"dnkt1p_hvt" FLOAT DOUBLE
"dpkt1p_hvt" FLOAT DOUBLE
"dtssp_hvt" FLOAT DOUBLE
"dltssp_hvt" FLOAT DOUBLE
"dntssp_hvt" FLOAT DOUBLE
"dptssp_hvt" FLOAT DOUBLE
"dutlp_hvt" FLOAT DOUBLE
"dlutlp_hvt" FLOAT DOUBLE
"dnutlp_hvt" FLOAT DOUBLE
"dputlp_hvt" FLOAT DOUBLE
"datp_hvt" FLOAT DOUBLE
"dlatp_hvt" FLOAT DOUBLE
"dnatp_hvt" FLOAT DOUBLE
"dpatp_hvt" FLOAT DOUBLE
"duc1p_hvt" FLOAT DOUBLE
"dluc1p_hvt" FLOAT DOUBLE
"dnuc1p_hvt" FLOAT DOUBLE
"dpuc1p_hvt" FLOAT DOUBLE
"ntoxp_hvt" FLOAT DOUBLE
"rcoskewp_hvt" FLOAT DOUBLE
"ff_flagp_hvt" FLOAT DOUBLE
"fs_flagp_hvt" FLOAT DOUBLE
"sf_flagp_hvt" FLOAT DOUBLE
"ss_flagp_hvt" FLOAT DOUBLE
"monte_flagp_hvt" FLOAT DOUBLE
"toxn_hvt" FLOAT DOUBLE
"dxln_hvt" FLOAT DOUBLE
"dtfinn_hvt" FLOAT DOUBLE
"dhfinn_hvt" FLOAT DOUBLE
"ccoddrwn_hvt" FLOAT DOUBLE
"ccosdrwn_hvt" FLOAT DOUBLE
"cfddrwn_hvt" FLOAT DOUBLE
"cfsdrwn_hvt" FLOAT DOUBLE
"cgln_hvt" FLOAT DOUBLE
"cgon_hvt" FLOAT DOUBLE
"ddlcn_hvt" FLOAT DOUBLE
"cjdrwn_hvt" FLOAT DOUBLE
"cjswgn_hvt" FLOAT DOUBLE
"cjswn_hvt" FLOAT DOUBLE
"datn_hvt" FLOAT DOUBLE
"dlatn_hvt" FLOAT DOUBLE
"dnatn_hvt" FLOAT DOUBLE
"dpatn_hvt" FLOAT DOUBLE
"dcitn_hvt" FLOAT DOUBLE
"dlcitn_hvt" FLOAT DOUBLE
"dncitn_hvt" FLOAT DOUBLE
"dpcitn_hvt" FLOAT DOUBLE
"ddvtshiftn_hvt" FLOAT DOUBLE
"dldvtshiftn_hvt" FLOAT DOUBLE
"dndvtshiftn_hvt" FLOAT DOUBLE
"dpdvtshiftn_hvt" FLOAT DOUBLE
"dksativn_hvt" FLOAT DOUBLE
"dlksativn_hvt" FLOAT DOUBLE
"dnksativn_hvt" FLOAT DOUBLE
"dpksativn_hvt" FLOAT DOUBLE
"dpclmn_hvt" FLOAT DOUBLE
"dlpclmn_hvt" FLOAT DOUBLE
"dnpclmn_hvt" FLOAT DOUBLE
"dppclmn_hvt" FLOAT DOUBLE
"deta0n_hvt" FLOAT DOUBLE
"dleta0n_hvt" FLOAT DOUBLE
"dneta0n_hvt" FLOAT DOUBLE
"dpeta0n_hvt" FLOAT DOUBLE
"dk0sin_hvt" FLOAT DOUBLE
"dlk0sin_hvt" FLOAT DOUBLE
"dnk0sin_hvt" FLOAT DOUBLE
"dpk0sin_hvt" FLOAT DOUBLE
"dk1n_hvt" FLOAT DOUBLE
"dlk1n_hvt" FLOAT DOUBLE
"dnk1n_hvt" FLOAT DOUBLE
"dpk1n_hvt" FLOAT DOUBLE
"dk1satn_hvt" FLOAT DOUBLE
"dlk1satn_hvt" FLOAT DOUBLE
"dnk1satn_hvt" FLOAT DOUBLE
"dpk1satn_hvt" FLOAT DOUBLE
"dkt1n_hvt" FLOAT DOUBLE
"dlkt1n_hvt" FLOAT DOUBLE
"dnkt1n_hvt" FLOAT DOUBLE
"dpkt1n_hvt" FLOAT DOUBLE
"dpdibl2n_hvt" FLOAT DOUBLE
"dlpdibl2n_hvt" FLOAT DOUBLE
"dnpdibl2n_hvt" FLOAT DOUBLE
"dppdibl2n_hvt" FLOAT DOUBLE
"du0n_hvt" FLOAT DOUBLE
"dlu0n_hvt" FLOAT DOUBLE
"dnu0n_hvt" FLOAT DOUBLE
"dpu0n_hvt" FLOAT DOUBLE
"duan_hvt" FLOAT DOUBLE
"dluan_hvt" FLOAT DOUBLE
"dnuan_hvt" FLOAT DOUBLE
"dpuan_hvt" FLOAT DOUBLE
"duc1n_hvt" FLOAT DOUBLE
"dluc1n_hvt" FLOAT DOUBLE
"dnuc1n_hvt" FLOAT DOUBLE
"dpuc1n_hvt" FLOAT DOUBLE
"ducn_hvt" FLOAT DOUBLE
"dlucn_hvt" FLOAT DOUBLE
"dnucn_hvt" FLOAT DOUBLE
"dpucn_hvt" FLOAT DOUBLE
"dutln_hvt" FLOAT DOUBLE
"dlutln_hvt" FLOAT DOUBLE
"dnutln_hvt" FLOAT DOUBLE
"dputln_hvt" FLOAT DOUBLE
"dvsatn_hvt" FLOAT DOUBLE
"dlvsatn_hvt" FLOAT DOUBLE
"dnvsatn_hvt" FLOAT DOUBLE
"dpvsatn_hvt" FLOAT DOUBLE
"ff_flagn_hvt" FLOAT DOUBLE
"fs_flagn_hvt" FLOAT DOUBLE
"ntoxn_hvt" FLOAT DOUBLE
"rcoskewn_hvt" FLOAT DOUBLE
"sf_flagn_hvt" FLOAT DOUBLE
"ss_flagn_hvt" FLOAT DOUBLE
"monte_flagn_hvt" FLOAT DOUBLE
"dtssn_hvt" FLOAT DOUBLE
"dltssn_hvt" FLOAT DOUBLE
"dntssn_hvt" FLOAT DOUBLE
"dptssn_hvt" FLOAT DOUBLE
"tmishe_mos_lvt" FLOAT DOUBLE
"shevmod_mos_lvt" FLOAT DOUBLE
"sheimod_mos_lvt" FLOAT DOUBLE
"tr_start_mos_lvt" FLOAT DOUBLE
"tr_end_mos_lvt" FLOAT DOUBLE
"alter_flag_mos_lvt" FLOAT DOUBLE
"ccodflag_mos_lvt" FLOAT DOUBLE
"ccosflag_mos_lvt" FLOAT DOUBLE
"rcodflag_mos_lvt" FLOAT DOUBLE
"rcosflag_mos_lvt" FLOAT DOUBLE
"rgflag_mos_lvt" FLOAT DOUBLE
"ngconflag_mos_lvt" FLOAT DOUBLE
"igflag_mos_lvt" FLOAT DOUBLE
"iboff_flag_mos_lvt" FLOAT DOUBLE
"ccoskewflag_mos_lvt" FLOAT DOUBLE
"rgskewflag_mos_lvt" FLOAT DOUBLE
"sigma_factorn_lvt" FLOAT DOUBLE
"globalflag_mos_lvt" FLOAT DOUBLE
"totalflag_mos_lvt" FLOAT DOUBLE
"mismatchflag_mos_lvt" FLOAT DOUBLE
"matchingflag_mos_lvt" FLOAT DOUBLE
"edgeflag_mos_lvt" FLOAT DOUBLE
"global_factorn_lvt" FLOAT DOUBLE
"local_factorn_lvt" FLOAT DOUBLE
"sigma_factorp_lvt" FLOAT DOUBLE
"global_factorp_lvt" FLOAT DOUBLE
"local_factorp_lvt" FLOAT DOUBLE
"noiseflagn_mos_lvt" FLOAT DOUBLE
"noiseflagn_mc_mos_lvt" FLOAT DOUBLE
"fnc_sigma_factorn_lvt" FLOAT DOUBLE
"fnc_global_factorn_lvt" FLOAT DOUBLE
"noiseflagp_mos_lvt" FLOAT DOUBLE
"noiseflagp_mc_mos_lvt" FLOAT DOUBLE
"fnc_sigma_factorp_lvt" FLOAT DOUBLE
"fnc_global_factorp_lvt" FLOAT DOUBLE
"toxn_lvt" FLOAT DOUBLE
"dxln_lvt" FLOAT DOUBLE
"dtfinn_lvt" FLOAT DOUBLE
"dhfinn_lvt" FLOAT DOUBLE
"ccoddrwn_lvt" FLOAT DOUBLE
"ccosdrwn_lvt" FLOAT DOUBLE
"cfddrwn_lvt" FLOAT DOUBLE
"cfsdrwn_lvt" FLOAT DOUBLE
"cgln_lvt" FLOAT DOUBLE
"cgon_lvt" FLOAT DOUBLE
"cjdrwn_lvt" FLOAT DOUBLE
"cjswgn_lvt" FLOAT DOUBLE
"cjswn_lvt" FLOAT DOUBLE
"datn_lvt" FLOAT DOUBLE
"dlatn_lvt" FLOAT DOUBLE
"dnatn_lvt" FLOAT DOUBLE
"dpatn_lvt" FLOAT DOUBLE
"dcitn_lvt" FLOAT DOUBLE
"dlcitn_lvt" FLOAT DOUBLE
"dncitn_lvt" FLOAT DOUBLE
"dpcitn_lvt" FLOAT DOUBLE
"ddlcn_lvt" FLOAT DOUBLE
"ddvtshiftn_lvt" FLOAT DOUBLE
"dldvtshiftn_lvt" FLOAT DOUBLE
"dndvtshiftn_lvt" FLOAT DOUBLE
"dpdvtshiftn_lvt" FLOAT DOUBLE
"dksativn_lvt" FLOAT DOUBLE
"dlksativn_lvt" FLOAT DOUBLE
"dnksativn_lvt" FLOAT DOUBLE
"dpksativn_lvt" FLOAT DOUBLE
"dpclmn_lvt" FLOAT DOUBLE
"dlpclmn_lvt" FLOAT DOUBLE
"dnpclmn_lvt" FLOAT DOUBLE
"dppclmn_lvt" FLOAT DOUBLE
"deta0n_lvt" FLOAT DOUBLE
"dleta0n_lvt" FLOAT DOUBLE
"dneta0n_lvt" FLOAT DOUBLE
"dpeta0n_lvt" FLOAT DOUBLE
"dk0sin_lvt" FLOAT DOUBLE
"dlk0sin_lvt" FLOAT DOUBLE
"dnk0sin_lvt" FLOAT DOUBLE
"dpk0sin_lvt" FLOAT DOUBLE
"dk1n_lvt" FLOAT DOUBLE
"dlk1n_lvt" FLOAT DOUBLE
"dnk1n_lvt" FLOAT DOUBLE
"dpk1n_lvt" FLOAT DOUBLE
"dk1satn_lvt" FLOAT DOUBLE
"dlk1satn_lvt" FLOAT DOUBLE
"dnk1satn_lvt" FLOAT DOUBLE
"dpk1satn_lvt" FLOAT DOUBLE
"dkt1n_lvt" FLOAT DOUBLE
"dlkt1n_lvt" FLOAT DOUBLE
"dnkt1n_lvt" FLOAT DOUBLE
"dpkt1n_lvt" FLOAT DOUBLE
"dpdibl2n_lvt" FLOAT DOUBLE
"dlpdibl2n_lvt" FLOAT DOUBLE
"dnpdibl2n_lvt" FLOAT DOUBLE
"dppdibl2n_lvt" FLOAT DOUBLE
"du0n_lvt" FLOAT DOUBLE
"dlu0n_lvt" FLOAT DOUBLE
"dnu0n_lvt" FLOAT DOUBLE
"dpu0n_lvt" FLOAT DOUBLE
"duan_lvt" FLOAT DOUBLE
"dluan_lvt" FLOAT DOUBLE
"dnuan_lvt" FLOAT DOUBLE
"dpuan_lvt" FLOAT DOUBLE
"duc1n_lvt" FLOAT DOUBLE
"dluc1n_lvt" FLOAT DOUBLE
"dnuc1n_lvt" FLOAT DOUBLE
"dpuc1n_lvt" FLOAT DOUBLE
"ducn_lvt" FLOAT DOUBLE
"dlucn_lvt" FLOAT DOUBLE
"dnucn_lvt" FLOAT DOUBLE
"dpucn_lvt" FLOAT DOUBLE
"dutln_lvt" FLOAT DOUBLE
"dlutln_lvt" FLOAT DOUBLE
"dnutln_lvt" FLOAT DOUBLE
"dputln_lvt" FLOAT DOUBLE
"dvsatn_lvt" FLOAT DOUBLE
"dlvsatn_lvt" FLOAT DOUBLE
"dnvsatn_lvt" FLOAT DOUBLE
"dpvsatn_lvt" FLOAT DOUBLE
"ff_flagn_lvt" FLOAT DOUBLE
"fs_flagn_lvt" FLOAT DOUBLE
"ntoxn_lvt" FLOAT DOUBLE
"rcoskewn_lvt" FLOAT DOUBLE
"sf_flagn_lvt" FLOAT DOUBLE
"ss_flagn_lvt" FLOAT DOUBLE
"monte_flagn_lvt" FLOAT DOUBLE
"toxp_lvt" FLOAT DOUBLE
"dxlp_lvt" FLOAT DOUBLE
"dtfinp_lvt" FLOAT DOUBLE
"dhfinp_lvt" FLOAT DOUBLE
"cjdrwp_lvt" FLOAT DOUBLE
"cjswgp_lvt" FLOAT DOUBLE
"cjswp_lvt" FLOAT DOUBLE
"cgop_lvt" FLOAT DOUBLE
"cglp_lvt" FLOAT DOUBLE
"ddlcp_lvt" FLOAT DOUBLE
"ccoddrwp_lvt" FLOAT DOUBLE
"ccosdrwp_lvt" FLOAT DOUBLE
"cfddrwp_lvt" FLOAT DOUBLE
"cfsdrwp_lvt" FLOAT DOUBLE
"ddvtshiftp_lvt" FLOAT DOUBLE
"dldvtshiftp_lvt" FLOAT DOUBLE
"dndvtshiftp_lvt" FLOAT DOUBLE
"dpdvtshiftp_lvt" FLOAT DOUBLE
"dcitp_lvt" FLOAT DOUBLE
"dlcitp_lvt" FLOAT DOUBLE
"dncitp_lvt" FLOAT DOUBLE
"dpcitp_lvt" FLOAT DOUBLE
"dk0sip_lvt" FLOAT DOUBLE
"dlk0sip_lvt" FLOAT DOUBLE
"dnk0sip_lvt" FLOAT DOUBLE
"dpk0sip_lvt" FLOAT DOUBLE
"deta0p_lvt" FLOAT DOUBLE
"dleta0p_lvt" FLOAT DOUBLE
"dneta0p_lvt" FLOAT DOUBLE
"dpeta0p_lvt" FLOAT DOUBLE
"du0p_lvt" FLOAT DOUBLE
"dlu0p_lvt" FLOAT DOUBLE
"dnu0p_lvt" FLOAT DOUBLE
"dpu0p_lvt" FLOAT DOUBLE
"duap_lvt" FLOAT DOUBLE
"dluap_lvt" FLOAT DOUBLE
"dnuap_lvt" FLOAT DOUBLE
"dpuap_lvt" FLOAT DOUBLE
"dvsatp_lvt" FLOAT DOUBLE
"dlvsatp_lvt" FLOAT DOUBLE
"dnvsatp_lvt" FLOAT DOUBLE
"dpvsatp_lvt" FLOAT DOUBLE
"dksativp_lvt" FLOAT DOUBLE
"dlksativp_lvt" FLOAT DOUBLE
"dnksativp_lvt" FLOAT DOUBLE
"dpksativp_lvt" FLOAT DOUBLE
"dpclmp_lvt" FLOAT DOUBLE
"dlpclmp_lvt" FLOAT DOUBLE
"dnpclmp_lvt" FLOAT DOUBLE
"dppclmp_lvt" FLOAT DOUBLE
"dpdibl2p_lvt" FLOAT DOUBLE
"dlpdibl2p_lvt" FLOAT DOUBLE
"dnpdibl2p_lvt" FLOAT DOUBLE
"dppdibl2p_lvt" FLOAT DOUBLE
"dk1p_lvt" FLOAT DOUBLE
"dlk1p_lvt" FLOAT DOUBLE
"dnk1p_lvt" FLOAT DOUBLE
"dpk1p_lvt" FLOAT DOUBLE
"dtssp_lvt" FLOAT DOUBLE
"dltssp_lvt" FLOAT DOUBLE
"dntssp_lvt" FLOAT DOUBLE
"dptssp_lvt" FLOAT DOUBLE
"dk1satp_lvt" FLOAT DOUBLE
"dlk1satp_lvt" FLOAT DOUBLE
"dnk1satp_lvt" FLOAT DOUBLE
"dpk1satp_lvt" FLOAT DOUBLE
"ducp_lvt" FLOAT DOUBLE
"dlucp_lvt" FLOAT DOUBLE
"dnucp_lvt" FLOAT DOUBLE
"dpucp_lvt" FLOAT DOUBLE
"dkt1p_lvt" FLOAT DOUBLE
"dlkt1p_lvt" FLOAT DOUBLE
"dnkt1p_lvt" FLOAT DOUBLE
"dpkt1p_lvt" FLOAT DOUBLE
"dutlp_lvt" FLOAT DOUBLE
"dlutlp_lvt" FLOAT DOUBLE
"dnutlp_lvt" FLOAT DOUBLE
"dputlp_lvt" FLOAT DOUBLE
"datp_lvt" FLOAT DOUBLE
"dlatp_lvt" FLOAT DOUBLE
"dnatp_lvt" FLOAT DOUBLE
"dpatp_lvt" FLOAT DOUBLE
"duc1p_lvt" FLOAT DOUBLE
"dluc1p_lvt" FLOAT DOUBLE
"dnuc1p_lvt" FLOAT DOUBLE
"dpuc1p_lvt" FLOAT DOUBLE
"ntoxp_lvt" FLOAT DOUBLE
"rcoskewp_lvt" FLOAT DOUBLE
"ff_flagp_lvt" FLOAT DOUBLE
"fs_flagp_lvt" FLOAT DOUBLE
"sf_flagp_lvt" FLOAT DOUBLE
"ss_flagp_lvt" FLOAT DOUBLE
"monte_flagp_lvt" FLOAT DOUBLE
"tmishe_mos_ulvt" FLOAT DOUBLE
"shevmod_mos_ulvt" FLOAT DOUBLE
"sheimod_mos_ulvt" FLOAT DOUBLE
"tr_start_mos_ulvt" FLOAT DOUBLE
"tr_end_mos_ulvt" FLOAT DOUBLE
"alter_flag_mos_ulvt" FLOAT DOUBLE
"ccodflag_mos_ulvt" FLOAT DOUBLE
"ccosflag_mos_ulvt" FLOAT DOUBLE
"rcodflag_mos_ulvt" FLOAT DOUBLE
"rcosflag_mos_ulvt" FLOAT DOUBLE
"rgflag_mos_ulvt" FLOAT DOUBLE
"ngconflag_mos_ulvt" FLOAT DOUBLE
"igflag_mos_ulvt" FLOAT DOUBLE
"iboff_flag_mos_ulvt" FLOAT DOUBLE
"ccoskewflag_mos_ulvt" FLOAT DOUBLE
"rgskewflag_mos_ulvt" FLOAT DOUBLE
"sigma_factorn_ulvt" FLOAT DOUBLE
"globalflag_mos_ulvt" FLOAT DOUBLE
"totalflag_mos_ulvt" FLOAT DOUBLE
"mismatchflag_mos_ulvt" FLOAT DOUBLE
"matchingflag_mos_ulvt" FLOAT DOUBLE
"edgeflag_mos_ulvt" FLOAT DOUBLE
"global_factorn_ulvt" FLOAT DOUBLE
"local_factorn_ulvt" FLOAT DOUBLE
"sigma_factorp_ulvt" FLOAT DOUBLE
"global_factorp_ulvt" FLOAT DOUBLE
"local_factorp_ulvt" FLOAT DOUBLE
"noiseflagn_mos_ulvt" FLOAT DOUBLE
"noiseflagn_mc_mos_ulvt" FLOAT DOUBLE
"fnc_sigma_factorn_ulvt" FLOAT DOUBLE
"fnc_global_factorn_ulvt" FLOAT DOUBLE
"noiseflagp_mos_ulvt" FLOAT DOUBLE
"noiseflagp_mc_mos_ulvt" FLOAT DOUBLE
"fnc_sigma_factorp_ulvt" FLOAT DOUBLE
"fnc_global_factorp_ulvt" FLOAT DOUBLE
"toxn_ulvt" FLOAT DOUBLE
"dxln_ulvt" FLOAT DOUBLE
"dhfinn_ulvt" FLOAT DOUBLE
"dtfinn_ulvt" FLOAT DOUBLE
"ccoddrwn_ulvt" FLOAT DOUBLE
"ccosdrwn_ulvt" FLOAT DOUBLE
"cfddrwn_ulvt" FLOAT DOUBLE
"cfsdrwn_ulvt" FLOAT DOUBLE
"cgln_ulvt" FLOAT DOUBLE
"cgon_ulvt" FLOAT DOUBLE
"cjdrwn_ulvt" FLOAT DOUBLE
"cjswgn_ulvt" FLOAT DOUBLE
"cjswn_ulvt" FLOAT DOUBLE
"datn_ulvt" FLOAT DOUBLE
"dlatn_ulvt" FLOAT DOUBLE
"dnatn_ulvt" FLOAT DOUBLE
"dpatn_ulvt" FLOAT DOUBLE
"dcitn_ulvt" FLOAT DOUBLE
"dlcitn_ulvt" FLOAT DOUBLE
"dncitn_ulvt" FLOAT DOUBLE
"dpcitn_ulvt" FLOAT DOUBLE
"ddlcn_ulvt" FLOAT DOUBLE
"ddvtshiftn_ulvt" FLOAT DOUBLE
"dldvtshiftn_ulvt" FLOAT DOUBLE
"dndvtshiftn_ulvt" FLOAT DOUBLE
"dpdvtshiftn_ulvt" FLOAT DOUBLE
"deta0n_ulvt" FLOAT DOUBLE
"dleta0n_ulvt" FLOAT DOUBLE
"dneta0n_ulvt" FLOAT DOUBLE
"dpeta0n_ulvt" FLOAT DOUBLE
"dk0sin_ulvt" FLOAT DOUBLE
"dlk0sin_ulvt" FLOAT DOUBLE
"dnk0sin_ulvt" FLOAT DOUBLE
"dpk0sin_ulvt" FLOAT DOUBLE
"dk1n_ulvt" FLOAT DOUBLE
"dlk1n_ulvt" FLOAT DOUBLE
"dnk1n_ulvt" FLOAT DOUBLE
"dpk1n_ulvt" FLOAT DOUBLE
"dk1satn_ulvt" FLOAT DOUBLE
"dlk1satn_ulvt" FLOAT DOUBLE
"dnk1satn_ulvt" FLOAT DOUBLE
"dpk1satn_ulvt" FLOAT DOUBLE
"dksativn_ulvt" FLOAT DOUBLE
"dlksativn_ulvt" FLOAT DOUBLE
"dnksativn_ulvt" FLOAT DOUBLE
"dpksativn_ulvt" FLOAT DOUBLE
"dpclmn_ulvt" FLOAT DOUBLE
"dlpclmn_ulvt" FLOAT DOUBLE
"dnpclmn_ulvt" FLOAT DOUBLE
"dppclmn_ulvt" FLOAT DOUBLE
"dpdibl2n_ulvt" FLOAT DOUBLE
"dlpdibl2n_ulvt" FLOAT DOUBLE
"dnpdibl2n_ulvt" FLOAT DOUBLE
"dppdibl2n_ulvt" FLOAT DOUBLE
"du0n_ulvt" FLOAT DOUBLE
"dlu0n_ulvt" FLOAT DOUBLE
"dnu0n_ulvt" FLOAT DOUBLE
"dpu0n_ulvt" FLOAT DOUBLE
"duan_ulvt" FLOAT DOUBLE
"dluan_ulvt" FLOAT DOUBLE
"dnuan_ulvt" FLOAT DOUBLE
"dpuan_ulvt" FLOAT DOUBLE
"dvsatn_ulvt" FLOAT DOUBLE
"dlvsatn_ulvt" FLOAT DOUBLE
"dnvsatn_ulvt" FLOAT DOUBLE
"dpvsatn_ulvt" FLOAT DOUBLE
"dkt1n_ulvt" FLOAT DOUBLE
"dlkt1n_ulvt" FLOAT DOUBLE
"dnkt1n_ulvt" FLOAT DOUBLE
"dpkt1n_ulvt" FLOAT DOUBLE
"dutln_ulvt" FLOAT DOUBLE
"dlutln_ulvt" FLOAT DOUBLE
"dnutln_ulvt" FLOAT DOUBLE
"dputln_ulvt" FLOAT DOUBLE
"ntoxn_ulvt" FLOAT DOUBLE
"rcoskewn_ulvt" FLOAT DOUBLE
"ss_flagn_ulvt" FLOAT DOUBLE
"ff_flagn_ulvt" FLOAT DOUBLE
"sf_flagn_ulvt" FLOAT DOUBLE
"fs_flagn_ulvt" FLOAT DOUBLE
"monte_flagn_ulvt" FLOAT DOUBLE
"toxp_ulvt" FLOAT DOUBLE
"dxlp_ulvt" FLOAT DOUBLE
"dtfinp_ulvt" FLOAT DOUBLE
"dhfinp_ulvt" FLOAT DOUBLE
"cjdrwp_ulvt" FLOAT DOUBLE
"cjswgp_ulvt" FLOAT DOUBLE
"cjswp_ulvt" FLOAT DOUBLE
"cgop_ulvt" FLOAT DOUBLE
"cglp_ulvt" FLOAT DOUBLE
"ddlcp_ulvt" FLOAT DOUBLE
"ccoddrwp_ulvt" FLOAT DOUBLE
"ccosdrwp_ulvt" FLOAT DOUBLE
"cfddrwp_ulvt" FLOAT DOUBLE
"cfsdrwp_ulvt" FLOAT DOUBLE
"ddvtshiftp_ulvt" FLOAT DOUBLE
"dldvtshiftp_ulvt" FLOAT DOUBLE
"dndvtshiftp_ulvt" FLOAT DOUBLE
"dpdvtshiftp_ulvt" FLOAT DOUBLE
"dcitp_ulvt" FLOAT DOUBLE
"dlcitp_ulvt" FLOAT DOUBLE
"dncitp_ulvt" FLOAT DOUBLE
"dpcitp_ulvt" FLOAT DOUBLE
"dk0sip_ulvt" FLOAT DOUBLE
"dlk0sip_ulvt" FLOAT DOUBLE
"dnk0sip_ulvt" FLOAT DOUBLE
"dpk0sip_ulvt" FLOAT DOUBLE
"deta0p_ulvt" FLOAT DOUBLE
"dleta0p_ulvt" FLOAT DOUBLE
"dneta0p_ulvt" FLOAT DOUBLE
"dpeta0p_ulvt" FLOAT DOUBLE
"du0p_ulvt" FLOAT DOUBLE
"dlu0p_ulvt" FLOAT DOUBLE
"dnu0p_ulvt" FLOAT DOUBLE
"dpu0p_ulvt" FLOAT DOUBLE
"duap_ulvt" FLOAT DOUBLE
"dluap_ulvt" FLOAT DOUBLE
"dnuap_ulvt" FLOAT DOUBLE
"dpuap_ulvt" FLOAT DOUBLE
"dvsatp_ulvt" FLOAT DOUBLE
"dlvsatp_ulvt" FLOAT DOUBLE
"dnvsatp_ulvt" FLOAT DOUBLE
"dpvsatp_ulvt" FLOAT DOUBLE
"dksativp_ulvt" FLOAT DOUBLE
"dlksativp_ulvt" FLOAT DOUBLE
"dnksativp_ulvt" FLOAT DOUBLE
"dpksativp_ulvt" FLOAT DOUBLE
"dpclmp_ulvt" FLOAT DOUBLE
"dlpclmp_ulvt" FLOAT DOUBLE
"dnpclmp_ulvt" FLOAT DOUBLE
"dppclmp_ulvt" FLOAT DOUBLE
"dpdibl2p_ulvt" FLOAT DOUBLE
"dlpdibl2p_ulvt" FLOAT DOUBLE
"dnpdibl2p_ulvt" FLOAT DOUBLE
"dppdibl2p_ulvt" FLOAT DOUBLE
"dk1p_ulvt" FLOAT DOUBLE
"dlk1p_ulvt" FLOAT DOUBLE
"dnk1p_ulvt" FLOAT DOUBLE
"dpk1p_ulvt" FLOAT DOUBLE
"dk1satp_ulvt" FLOAT DOUBLE
"dlk1satp_ulvt" FLOAT DOUBLE
"dnk1satp_ulvt" FLOAT DOUBLE
"dpk1satp_ulvt" FLOAT DOUBLE
"ducp_ulvt" FLOAT DOUBLE
"dlucp_ulvt" FLOAT DOUBLE
"dnucp_ulvt" FLOAT DOUBLE
"dpucp_ulvt" FLOAT DOUBLE
"dkt1p_ulvt" FLOAT DOUBLE
"dlkt1p_ulvt" FLOAT DOUBLE
"dnkt1p_ulvt" FLOAT DOUBLE
"dpkt1p_ulvt" FLOAT DOUBLE
"dtssp_ulvt" FLOAT DOUBLE
"dltssp_ulvt" FLOAT DOUBLE
"dntssp_ulvt" FLOAT DOUBLE
"dptssp_ulvt" FLOAT DOUBLE
"dutlp_ulvt" FLOAT DOUBLE
"dlutlp_ulvt" FLOAT DOUBLE
"dnutlp_ulvt" FLOAT DOUBLE
"dputlp_ulvt" FLOAT DOUBLE
"datp_ulvt" FLOAT DOUBLE
"dlatp_ulvt" FLOAT DOUBLE
"dnatp_ulvt" FLOAT DOUBLE
"dpatp_ulvt" FLOAT DOUBLE
"duc1p_ulvt" FLOAT DOUBLE
"dluc1p_ulvt" FLOAT DOUBLE
"dnuc1p_ulvt" FLOAT DOUBLE
"dpuc1p_ulvt" FLOAT DOUBLE
"ntoxp_ulvt" FLOAT DOUBLE
"rcoskewp_ulvt" FLOAT DOUBLE
"ff_flagp_ulvt" FLOAT DOUBLE
"fs_flagp_ulvt" FLOAT DOUBLE
"sf_flagp_ulvt" FLOAT DOUBLE
"ss_flagp_ulvt" FLOAT DOUBLE
"monte_flagp_ulvt" FLOAT DOUBLE
"tmishe_mos_18" FLOAT DOUBLE
"shevmod_mos_18" FLOAT DOUBLE
"sheimod_mos_18" FLOAT DOUBLE
"tr_start_mos_18" FLOAT DOUBLE
"tr_end_mos_18" FLOAT DOUBLE
"alter_flag_mos_18" FLOAT DOUBLE
"ccodflag_mos_18" FLOAT DOUBLE
"ccosflag_mos_18" FLOAT DOUBLE
"rcodflag_mos_18" FLOAT DOUBLE
"rcosflag_mos_18" FLOAT DOUBLE
"rgflag_mos_18" FLOAT DOUBLE
"ngconflag_mos_18" FLOAT DOUBLE
"iboff_flag_mos_18" FLOAT DOUBLE
"ccoskewflag_mos_18" FLOAT DOUBLE
"rgskewflag_mos_18" FLOAT DOUBLE
"sigma_factorp_18" FLOAT DOUBLE
"globalflag_mos_18" FLOAT DOUBLE
"totalflag_mos_18" FLOAT DOUBLE
"mismatchflag_mos_18" FLOAT DOUBLE
"matchingflag_mos_18" FLOAT DOUBLE
"edgeflag_mos_18" FLOAT DOUBLE
"global_factorp_18" FLOAT DOUBLE
"local_factorp_18" FLOAT DOUBLE
"sigma_factorn_18" FLOAT DOUBLE
"global_factorn_18" FLOAT DOUBLE
"local_factorn_18" FLOAT DOUBLE
"noiseflagn_mos_18" FLOAT DOUBLE
"noiseflagn_mc_mos_18" FLOAT DOUBLE
"fnc_sigma_factorn_18" FLOAT DOUBLE
"fnc_global_factorn_18" FLOAT DOUBLE
"noiseflagp_mos_18" FLOAT DOUBLE
"noiseflagp_mc_mos_18" FLOAT DOUBLE
"fnc_sigma_factorp_18" FLOAT DOUBLE
"fnc_global_factorp_18" FLOAT DOUBLE
"toxp_18" FLOAT DOUBLE
"dxlp_18" FLOAT DOUBLE
"dhfinp_18" FLOAT DOUBLE
"dtfinp_18" FLOAT DOUBLE
"cjdrwp_18" FLOAT DOUBLE
"cjswp_18" FLOAT DOUBLE
"cjswgp_18" FLOAT DOUBLE
"cgop_18" FLOAT DOUBLE
"cglp_18" FLOAT DOUBLE
"ddlcp_18" FLOAT DOUBLE
"cfsdrwp_18" FLOAT DOUBLE
"cfddrwp_18" FLOAT DOUBLE
"ccosdrwp_18" FLOAT DOUBLE
"ccoddrwp_18" FLOAT DOUBLE
"ddvtshiftp_18" FLOAT DOUBLE
"dldvtshiftp_18" FLOAT DOUBLE
"dndvtshiftp_18" FLOAT DOUBLE
"dpdvtshiftp_18" FLOAT DOUBLE
"dcitp_18" FLOAT DOUBLE
"dlcitp_18" FLOAT DOUBLE
"dncitp_18" FLOAT DOUBLE
"dpcitp_18" FLOAT DOUBLE
"dk0sip_18" FLOAT DOUBLE
"dlk0sip_18" FLOAT DOUBLE
"dnk0sip_18" FLOAT DOUBLE
"dpk0sip_18" FLOAT DOUBLE
"deta0p_18" FLOAT DOUBLE
"dleta0p_18" FLOAT DOUBLE
"dneta0p_18" FLOAT DOUBLE
"dpeta0p_18" FLOAT DOUBLE
"du0p_18" FLOAT DOUBLE
"dlu0p_18" FLOAT DOUBLE
"dnu0p_18" FLOAT DOUBLE
"dpu0p_18" FLOAT DOUBLE
"duap_18" FLOAT DOUBLE
"dluap_18" FLOAT DOUBLE
"dnuap_18" FLOAT DOUBLE
"dpuap_18" FLOAT DOUBLE
"dvsatp_18" FLOAT DOUBLE
"dlvsatp_18" FLOAT DOUBLE
"dnvsatp_18" FLOAT DOUBLE
"dpvsatp_18" FLOAT DOUBLE
"dpclmp_18" FLOAT DOUBLE
"dlpclmp_18" FLOAT DOUBLE
"dnpclmp_18" FLOAT DOUBLE
"dppclmp_18" FLOAT DOUBLE
"dpdibl2p_18" FLOAT DOUBLE
"dlpdibl2p_18" FLOAT DOUBLE
"dnpdibl2p_18" FLOAT DOUBLE
"dppdibl2p_18" FLOAT DOUBLE
"dk1p_18" FLOAT DOUBLE
"dlk1p_18" FLOAT DOUBLE
"dnk1p_18" FLOAT DOUBLE
"dpk1p_18" FLOAT DOUBLE
"dk1satp_18" FLOAT DOUBLE
"dlk1satp_18" FLOAT DOUBLE
"dnk1satp_18" FLOAT DOUBLE
"dpk1satp_18" FLOAT DOUBLE
"ducp_18" FLOAT DOUBLE
"dlucp_18" FLOAT DOUBLE
"dnucp_18" FLOAT DOUBLE
"dpucp_18" FLOAT DOUBLE
"dkt1p_18" FLOAT DOUBLE
"dlkt1p_18" FLOAT DOUBLE
"dnkt1p_18" FLOAT DOUBLE
"dpkt1p_18" FLOAT DOUBLE
"dutlp_18" FLOAT DOUBLE
"dlutlp_18" FLOAT DOUBLE
"dnutlp_18" FLOAT DOUBLE
"dputlp_18" FLOAT DOUBLE
"duc1p_18" FLOAT DOUBLE
"dluc1p_18" FLOAT DOUBLE
"dnuc1p_18" FLOAT DOUBLE
"dpuc1p_18" FLOAT DOUBLE
"datp_18" FLOAT DOUBLE
"dlatp_18" FLOAT DOUBLE
"dnatp_18" FLOAT DOUBLE
"dpatp_18" FLOAT DOUBLE
"ntoxp_18" FLOAT DOUBLE
"rcoskewp_18" FLOAT DOUBLE
"ss_flagp_18" FLOAT DOUBLE
"ff_flagp_18" FLOAT DOUBLE
"sf_flagp_18" FLOAT DOUBLE
"fs_flagp_18" FLOAT DOUBLE
"monte_flagp_18" FLOAT DOUBLE
"toxn_18" FLOAT DOUBLE
"dxln_18" FLOAT DOUBLE
"dtfinn_18" FLOAT DOUBLE
"dhfinn_18" FLOAT DOUBLE
"cjdrwn_18" FLOAT DOUBLE
"cjswgn_18" FLOAT DOUBLE
"cjswn_18" FLOAT DOUBLE
"cgon_18" FLOAT DOUBLE
"cgln_18" FLOAT DOUBLE
"ddlcn_18" FLOAT DOUBLE
"cfddrwn_18" FLOAT DOUBLE
"cfsdrwn_18" FLOAT DOUBLE
"ccoddrwn_18" FLOAT DOUBLE
"ccosdrwn_18" FLOAT DOUBLE
"ddvtshiftn_18" FLOAT DOUBLE
"dldvtshiftn_18" FLOAT DOUBLE
"dndvtshiftn_18" FLOAT DOUBLE
"dpdvtshiftn_18" FLOAT DOUBLE
"dcitn_18" FLOAT DOUBLE
"dlcitn_18" FLOAT DOUBLE
"dncitn_18" FLOAT DOUBLE
"dpcitn_18" FLOAT DOUBLE
"dk0sin_18" FLOAT DOUBLE
"dlk0sin_18" FLOAT DOUBLE
"dnk0sin_18" FLOAT DOUBLE
"dpk0sin_18" FLOAT DOUBLE
"deta0n_18" FLOAT DOUBLE
"dleta0n_18" FLOAT DOUBLE
"dneta0n_18" FLOAT DOUBLE
"dpeta0n_18" FLOAT DOUBLE
"du0n_18" FLOAT DOUBLE
"dlu0n_18" FLOAT DOUBLE
"dnu0n_18" FLOAT DOUBLE
"dpu0n_18" FLOAT DOUBLE
"duan_18" FLOAT DOUBLE
"dluan_18" FLOAT DOUBLE
"dnuan_18" FLOAT DOUBLE
"dpuan_18" FLOAT DOUBLE
"dvsatn_18" FLOAT DOUBLE
"dlvsatn_18" FLOAT DOUBLE
"dnvsatn_18" FLOAT DOUBLE
"dpvsatn_18" FLOAT DOUBLE
"dpclmn_18" FLOAT DOUBLE
"dlpclmn_18" FLOAT DOUBLE
"dnpclmn_18" FLOAT DOUBLE
"dppclmn_18" FLOAT DOUBLE
"dpdibl2n_18" FLOAT DOUBLE
"dlpdibl2n_18" FLOAT DOUBLE
"dnpdibl2n_18" FLOAT DOUBLE
"dppdibl2n_18" FLOAT DOUBLE
"dk1n_18" FLOAT DOUBLE
"dlk1n_18" FLOAT DOUBLE
"dnk1n_18" FLOAT DOUBLE
"dpk1n_18" FLOAT DOUBLE
"dk1satn_18" FLOAT DOUBLE
"dlk1satn_18" FLOAT DOUBLE
"dnk1satn_18" FLOAT DOUBLE
"dpk1satn_18" FLOAT DOUBLE
"ducn_18" FLOAT DOUBLE
"dlucn_18" FLOAT DOUBLE
"dnucn_18" FLOAT DOUBLE
"dpucn_18" FLOAT DOUBLE
"dkt1n_18" FLOAT DOUBLE
"dlkt1n_18" FLOAT DOUBLE
"dnkt1n_18" FLOAT DOUBLE
"dpkt1n_18" FLOAT DOUBLE
"dutln_18" FLOAT DOUBLE
"dlutln_18" FLOAT DOUBLE
"dnutln_18" FLOAT DOUBLE
"dputln_18" FLOAT DOUBLE
"duc1n_18" FLOAT DOUBLE
"dluc1n_18" FLOAT DOUBLE
"dnuc1n_18" FLOAT DOUBLE