HEADER
"PSFversion" "1.00"
"Time Stamp" "Jan 11 23:02:57 2017"
TYPE
"variable" STRUCT(
"value" FLOAT DOUBLE
) PROP( "key" "element" )
VALUE
"vdc" "variable" ( 500e-3 ) PROP( )
"res" "variable" ( 1000 ) PROP( )
"cap" "variable" ( 20e-12 ) PROP( )
"temp" "variable" ( 27 ) PROP( )
END
