HEADER
"PSFversion" "1.00"
"Run Generator" "drlRun rev. 1.0"
"Run Time Stamp" "Jan 11 23:02:59 2017"
"date" "Jan 11 23:02:59 2017"
"simulator" "spectre"
"netlistDir" "../netlist"
"axlParamFlag" "true"
TYPE
"runObject" STRUCT(
"logName" ARRAY( * ) STRING *
"parent" STRING *
"sweepVariable" ARRAY( * ) STRING *
) PROP( "key" "runObject" )
VALUE
"Root" "runObject" (
("")
""
("cap")
)


"cap=1e-12" "runObject" (
("")
"Root"
("res")
) PROP(
 "cap" 1.000000e-12
)


"cap=1e-12,res=500.0" "runObject" (
(
"../../../1/test/psf/logFile"
"../../../1/test/psf/artistLogFile"
)
"cap=1e-12"
()
) PROP(
"Corner" "nom"
"netlistDir" "../../../1/test/netlist"
"dataDir" "../../../1/test"
 "res" 5.000000e+02
)



"cap=1e-11" "runObject" (
("")
"Root"
("res")
) PROP(
 "cap" 1.000000e-11
)

"cap=1e-11,res=500.0" "runObject" (
(
"../../../4/test/psf/logFile"
"../../../4/test/psf/artistLogFile"
)
"cap=1e-11"
()
) PROP(
"Corner" "nom"
"netlistDir" "../../../4/test/netlist"
"dataDir" "../../../4/test"
 "res" 5.000000e+02
)

"cap=2e-11" "runObject" (
("")
"Root"
("res")
) PROP(
 "cap" 2.000000e-11
)

"cap=2e-11,res=500.0" "runObject" (
(
"../../../7/test/psf/logFile"
"../../../7/test/psf/artistLogFile"
)
"cap=2e-11"
()
) PROP(
"Corner" "nom"
"netlistDir" "../../../7/test/netlist"
"dataDir" "../../../7/test"
 "res" 5.000000e+02
)

"cap=1e-12,res=1000.0" "runObject" (
(
"../../../2/test/psf/logFile"
"../../../2/test/psf/artistLogFile"
)
"cap=1e-12"
()
) PROP(
"Corner" "nom"
"netlistDir" "../../../2/test/netlist"
"dataDir" "../../../2/test"
 "res" 1.000000e+03
)

"cap=1e-11,res=1000.0" "runObject" (
(
"../../../5/test/psf/logFile"
"../../../5/test/psf/artistLogFile"
)
"cap=1e-11"
()
) PROP(
"Corner" "nom"
"netlistDir" "../../../5/test/netlist"
"dataDir" "../../../5/test"
 "res" 1.000000e+03
)

"cap=2e-11,res=1000.0" "runObject" (
(
"../../../8/test/psf/logFile"
"../../../8/test/psf/artistLogFile"
)
"cap=2e-11"
()
) PROP(
"Corner" "nom"
"netlistDir" "../../../8/test/netlist"
"dataDir" "../../../8/test"
 "res" 1.000000e+03
)

"cap=1e-12,res=2000.0" "runObject" (
(
"../../../3/test/psf/logFile"
"../../../3/test/psf/artistLogFile"
)
"cap=1e-12"
()
) PROP(
"Corner" "nom"
"netlistDir" "../../../3/test/netlist"
"dataDir" "../../../3/test"
 "res" 2.000000e+03
)

"cap=1e-11,res=2000.0" "runObject" (
(
"../../../6/test/psf/logFile"
"../../../6/test/psf/artistLogFile"
)
"cap=1e-11"
()
) PROP(
"Corner" "nom"
"netlistDir" "../../../6/test/netlist"
"dataDir" "../../../6/test"
 "res" 2.000000e+03
)

"cap=2e-11,res=2000.0" "runObject" (
(
"../../../9/test/psf/logFile"
"../../../9/test/psf/artistLogFile"
)
"cap=2e-11"
()
) PROP(
"Corner" "nom"
"netlistDir" "../../../9/test/netlist"
"dataDir" "../../../9/test"
 "res" 2.000000e+03
)

END
